/*--------------------------------*- C++ -*----------------------------------*\
| =========                 |                                                 |
| \\      /  F ield         | OpenFOAM: The Open Source CFD Toolbox           |
|  \\    /   O peration     | Version:  1912                                  |
|   \\  /    A nd           | Website:  www.openfoam.com                      |
|    \\/     M anipulation  |                                                 |
\*---------------------------------------------------------------------------*/
FoamFile
{
    version     2.0;
    format      ascii;
    class       volScalarField;
    location    "40000/solid";
    object      T;
}
// * * * * * * * * * * * * * * * * * * * * * * * * * * * * * * * * * * * * * //

dimensions      [0 0 0 1 0 0 0];


internalField   nonuniform List<scalar> 
2552
(
51329.38
62856.48
50465.08
3221.751
35283.07
51030.49
14219.41
50274.2
18634.32
18908.2
576.9262
747.9793
62911.14
549.9887
9711.827
4271.188
1793.512
37418.42
1642.804
25326.43
1987.974
25697.83
51008.12
63006.93
62869.02
1219.048
36949.79
33341.22
28758.35
5701.663
50732.26
1562.377
50155.55
32659.69
2605.838
501.0717
25814.55
11248.34
5341.935
21961.19
732.7804
50598.62
11801.11
12342.76
25431.59
17355.07
11104.94
7756.308
20877.34
21899.25
50397.56
34504.28
18148.06
1075.763
1371.37
32090.79
27981.35
23226.43
4082.145
6327.021
24999.06
2631.664
25036.37
33053.94
16188.29
1177.842
909.435
33859.77
10508.61
27364.49
31509.85
1523
25262.42
28319.42
648.7404
32382.36
15128.22
43135.09
2034.771
51713.52
6994.84
2991.696
37606.9
36448.13
15642.59
853.0217
5599.014
21466.67
843.2466
19549.59
11814.9
14599.37
10221.16
8702.976
34583.02
1774.992
469.8412
419.5725
564.5649
400.2019
481.6615
723.1481
409.2773
398.141
568.5844
6014.85
33347.61
34953.8
37567.89
62826.83
2722.257
2608.993
62961.77
17165.89
15821.9
33930.2
50756.97
633.4759
26893.3
20739.68
2553.132
62742.86
13415.06
35567.05
12604.82
24649.31
7050.947
30029.89
25919.23
14471.88
1087.604
36274.44
8849.616
513.4658
31061.12
17559.4
22125.63
23362.08
50762.33
498.0482
62800.26
19543.61
11082.25
430.3548
514.8445
62763.73
23248.46
12741.01
19713.63
624.8052
22186.66
1429.176
6436.442
8771.099
63041.89
19375.39
399.3464
402.9515
479.1026
536.8885
9659.513
41422.53
14344.69
35180.85
396.2048
398.7558
12081.72
17014.41
541.9965
36377.13
856.0297
886.835
50594.58
26136.03
476.7576
62828.33
62933.34
7412.242
14266.12
62873.38
1534.697
2133.43
387.1005
388.4221
401.5785
388.4934
62628.27
62538.16
10322.8
11374.41
1014.322
491.0223
400.6977
388.0748
433.2512
10283.94
11042.53
7257.556
8889.804
4587.783
62848.19
12985.97
35689.51
2080.045
6254.755
4911.546
50356.15
10764.81
63470.97
3622.925
59852.62
872.0191
3103.64
22331.73
7285.875
63035.02
5022.036
62823.04
406.1693
62786.65
3239.359
427.3123
5051.545
35413.55
45650.82
3365.657
2192.777
1314.308
423.5321
1447.2
621.3929
32643.03
4701.577
662.0591
46709.22
32389.57
34409.9
51392.69
8718.977
4816.504
32261.88
51338.07
19216.4
499.2688
457.7828
507.8703
13087.27
473.7756
489.93
474.4707
508.6048
438.3769
680.2788
477.5277
399.1065
394.9145
433.9397
390.7973
44352.93
557.4712
45210.46
717.8041
451.694
989.6286
2349.141
392.1111
435.1767
7234.184
397.8407
393.3689
62819.39
62895.24
32429.74
63415.77
1126.57
1233.988
414.2712
405.7155
2094.456
23664.76
2996.951
13225.95
988.6935
755.4621
461.1392
434.5728
420.911
423.6844
406.3581
395.0559
50686.49
8652.997
62956.98
51803.38
13188.27
980.004
4089.621
5956.908
424.5196
405.7658
399.6864
45425.71
5908.484
16111.18
1087.438
20365.04
467.3305
18417.18
20770.83
6077.3
861.637
7166.007
8207.686
3383.798
1420.797
4978.625
5034.991
434.9128
589.2569
45633.42
46154.76
51021.99
51329.38
45633.42
46154.76
51021.99
62994.92
62856.48
62994.92
56602.02
57098.95
56602.02
57098.95
44384.73
50227.63
44759.76
50465.08
44384.73
50227.63
44759.76
4552.335
4019.016
3764.264
3221.751
4552.335
4019.016
3764.264
40119.91
39991.02
34984.59
35283.07
40119.91
39991.02
34984.59
44243.22
45831.22
50310.97
51030.49
44243.22
45831.22
50310.97
14278.48
16681.33
16765.91
14219.41
14278.48
16681.33
16765.91
44626.07
50356.27
44381.99
50274.2
44626.07
50356.27
44381.99
21008.6
22534.54
24094.85
18634.32
21008.6
22534.54
24094.85
19645
16286.52
16715.88
18908.2
19645
16286.52
16715.88
577.0525
700.7992
700.8238
914.885
1201.33
914.9185
1201.354
773.0009
893.4687
671.1744
748.0034
773.0108
893.4826
671.1877
62928.43
62911.14
62928.43
56708.66
56761.16
56708.66
56761.16
719.3933
625.7628
617.7807
549.9878
719.3879
625.7575
617.7784
11199.37
9415.319
11509.17
9711.827
11199.37
9415.319
11509.17
3940.866
5707.013
5503.842
4271.188
3940.866
5707.014
5503.842
1793.509
2580.321
3421.382
2825.851
2580.321
3421.382
2825.851
38773.47
42172.29
43664.89
37418.42
38773.47
42172.29
43664.89
2025.554
1698.849
1503.653
1642.803
2025.555
1698.849
1503.653
25849.82
28194.53
29588
25326.43
25849.82
28194.53
29588
1261.329
1623.28
1574.369
1987.982
1261.351
1623.296
1574.381
29364.08
25697.83
29364.08
24618.07
27921.39
24618.07
27921.39
45935.51
51099.6
45807.5
51008.12
45935.51
51099.6
45807.5
63102.71
63006.93
63102.71
57311.82
57537.62
57311.82
57537.62
62838.39
62869.02
62838.39
56603
56685.67
56603
56685.67
1310.735
1042.168
970.5516
1219.037
1310.731
1042.164
970.5442
40300.06
40693.1
35565.02
36949.79
40300.06
40693.1
35565.02
28005.91
31925.75
29596.61
33341.22
28005.91
31925.75
29596.61
32958.33
34132.58
29704.53
28758.35
32958.33
34132.58
29704.53
7097.222
8457.64
7074.554
5701.663
7097.222
8457.64
7074.554
45691.64
45184.52
50954.96
50732.26
45691.64
45184.52
50954.96
1830.306
1395.706
1176.379
1562.276
1830.271
1395.667
1176.29
44196.36
50099.45
44220.45
50155.55
44196.36
50099.45
44220.45
34197.53
38425.55
39214.2
32659.69
34197.53
38425.55
39214.2
2605.838
4200.227
4415.254
5699.102
4200.227
4415.254
5699.102
502.8494
549.835
468.3703
501.0714
502.8483
549.8336
468.37
25641.41
29550.37
29824.99
25814.55
25641.41
29550.37
29824.99
11459.06
13683.25
13967.23
11248.34
11459.06
13683.25
13967.23
4542.166
7055.108
6474.102
5341.933
4542.164
7055.108
6474.101
18146.68
17900.16
20558.49
21961.19
18146.68
17900.16
20558.49
879.4808
763.4129
902.9714
732.7427
879.4643
763.4059
902.9662
44069.99
50182.16
45126.23
50598.62
44069.99
50182.16
45126.23
12241.31
14778.31
14348.86
11801.11
12241.31
14778.31
14348.86
10360.71
12201.75
10278.15
12342.76
10360.71
12201.75
10278.15
25727.09
29797.37
29862.3
25431.59
25727.09
29797.37
29862.3
18552.65
21234.36
21890.28
17355.07
18552.65
21234.36
21890.28
11508.37
14147.54
14235.44
11104.94
11508.37
14147.54
14235.44
9625.017
8263.435
10084.83
7756.308
9625.017
8263.435
10084.83
24263.87
23722.2
20434.28
20877.34
24263.87
23722.2
20434.28
21364.37
24888.04
25636.68
21899.25
21364.37
24888.04
25636.68
44823.33
44552.96
50884.99
50397.56
44823.33
44552.96
50884.99
34447.22
39433.98
39513.1
34504.28
34447.22
39433.98
39513.1
16566.33
21322.99
20128.28
18148.06
16566.33
21322.99
20128.28
872.1417
1075.758
872.138
1956.003
1581.278
1956.002
1581.276
1371.372
1253.352
1253.354
2877.917
2594.201
2877.919
2594.202
37791.62
35754.29
30876.75
32090.79
37791.62
35754.29
30876.75
27365.92
32063.04
31412.46
27981.35
27365.92
32063.04
31412.46
22528.39
27273.69
26428.44
23226.43
22528.39
27273.69
26428.44
5543.351
5740.527
4562.246
4082.146
5543.351
5740.527
4562.246
8704.548
7067.137
9090.582
6327.021
8704.548
7067.136
9090.582
23820.47
27766.43
28887.58
24999.06
23820.47
27766.43
28887.58
2785.993
3686.22
3422.8
2631.66
2785.993
3686.22
3422.799
24045.32
28139.05
29053
25036.37
24045.32
28139.05
29053
33756.67
38932.29
39049.45
33053.94
33756.67
38932.29
39049.45
14540.64
18736.93
17047.05
16188.29
14540.64
18736.93
17047.05
1177.658
1910.177
1677.736
2332.53
1910.077
1677.586
2332.462
909.4507
941.0911
1372.182
1202.629
941.128
1372.18
1202.63
30656.64
32520.69
34995.43
33859.77
30656.64
32520.69
34995.43
13407.61
12102.04
9716.959
10508.61
13407.61
12102.04
9716.959
24041.03
29378.79
25930.56
27364.49
24041.03
29378.79
25930.56
27884.79
32735.43
29220.64
31509.85
27884.79
32735.43
29220.64
1522.994
1283.414
1283.408
3188.658
2545.729
3188.658
2545.729
29741.96
29793.12
25222.34
25262.42
29741.96
29793.12
25222.34
24787.25
30064.85
26454.43
28319.42
24787.25
30064.85
26454.43
663.6936
588.0004
571.7797
648.7395
663.6929
588.0004
571.7788
28934.6
33013.17
36392.15
32382.36
28934.6
33013.17
36392.15
17837.14
14839.89
17474
15128.22
17837.14
14839.89
17474
40616.79
48127.83
45593.83
43135.09
40616.79
48127.83
45593.83
1567.77
1678.08
2148.939
2034.762
1567.758
1678.077
2148.939
46916.74
52284.75
48239.4
51713.52
46916.74
52284.75
48239.4
5090.553
6465.016
5398.339
6994.84
5090.553
6465.017
5398.34
3262.167
3955.815
4179.625
2991.698
3262.169
3955.816
4179.626
36305.9
39755.74
41490.74
37606.9
36305.9
39755.74
41490.74
35785.43
40546.93
41156.78
36448.13
35785.43
40546.93
41156.78
18586.63
15400.19
18205.28
15642.59
18586.63
15400.19
18205.28
796.6445
721.9981
676.4707
853.0192
796.6404
721.9962
676.4682
4766.904
6019.416
4408.172
5599.014
4766.904
6019.416
4408.171
19787.66
22740.29
24202.09
21466.67
19787.66
22740.29
24202.09
1046.077
843.1851
1046.058
1795.838
2230.202
1795.792
2230.19
22478.65
20162.93
22580.24
19549.59
22478.65
20162.93
22580.24
14276.19
11981.19
14099.54
11814.9
14276.19
11981.19
14099.54
14406.66
17174.66
16929.23
14599.37
14406.66
17174.66
16929.23
11620.16
9965.932
8553.145
10221.16
11620.16
9965.932
8553.145
10505.26
10859.74
9079.571
8702.976
10505.26
10859.74
9079.571
34707.64
39825.6
39628.09
34583.02
34707.64
39825.6
39628.09
1817.985
2267.991
1490.975
1774.99
1817.983
2267.99
1490.97
469.9589
435.2643
435.284
565.6572
511.9976
565.7279
512.0134
409.6363
419.5777
409.6327
449.6892
475.428
449.6894
475.4317
629.9784
564.566
629.9791
592.62
536.5063
592.621
536.5077
405.8336
400.1999
405.8312
432.206
419.2835
432.2059
419.2835
518.4761
481.6615
518.4766
495.175
463.3697
495.1754
463.3696
838.8044
723.1513
838.8088
756.8282
663.9455
756.8334
663.949
419.7326
409.2816
419.7513
443.7229
460.2449
443.7261
460.254
402.9926
398.1425
402.9945
418.3487
429.7812
418.3493
429.7826
634.9141
568.5856
634.9161
537.1818
591.776
537.1829
591.7781
6556.452
8265.251
7672.104
6014.849
6556.452
8265.251
7672.104
37686.89
33347.61
37686.89
35459.94
31553.08
35459.94
31553.08
40063.02
35302.17
40303.12
34953.8
40063.02
35302.17
40303.12
38219.15
41506.45
41607.66
37567.89
38219.15
41506.45
41607.66
62766.27
62826.83
62766.27
56798.63
56548.76
56798.63
56548.76
3200.195
4129.754
3374.787
2722.224
3200.173
4129.748
3374.777
2175.064
2736.048
3159.128
2608.993
2175.063
2736.048
3159.128
62929.93
62961.77
62929.93
56979.74
56816.36
56979.74
56816.36
16899.19
20898.63
20944.98
17165.89
16899.19
20898.63
20944.98
19360.03
15769.98
18927.08
15821.9
19360.03
15769.98
18927.08
34255.36
39239.09
38932.07
33930.2
34255.36
39239.09
38932.07
45259.02
45055.95
50864.89
50756.97
45259.02
45055.95
50864.89
661.214
585.3059
562.1905
633.4247
661.2085
585.3068
562.1923
30942.39
26443.2
30552.75
26893.3
30942.39
26443.2
30552.75
22093.57
18071.06
17392.49
20739.68
22093.57
18071.06
17392.49
2115.489
2744.588
3308.347
2553.135
2115.497
2744.591
3308.348
62786.54
62742.86
62786.54
56560.93
56469.89
56560.93
56469.89
15642.14
12537.48
14204.65
13415.06
15642.14
12537.48
14204.65
36646.97
40917.98
40165.11
35567.05
36646.97
40917.98
40165.11
15089.09
12919.86
15294.02
12604.82
15089.09
12919.86
15294.02
25881.05
21725.96
22714.16
24649.31
25881.05
21725.96
22714.16
8799.071
9276.762
7522.998
7050.947
8799.071
9276.762
7522.998
30460.98
25991.76
25452.9
30029.89
30460.98
25991.76
25452.9
29356.91
25919.23
29356.91
25369.17
28138.7
25369.17
28138.7
12175.79
15841.26
13588.68
14471.88
12175.79
15841.26
13588.68
868.5667
915.8011
740.8378
1087.577
868.5531
915.7513
740.8186
40764.01
40351.72
35807.45
36274.44
40764.01
40351.72
35807.45
7291.127
7165.187
8931.367
8849.616
7291.127
7165.187
8931.367
514.2244
465.5212
465.8306
651.5791
754.2607
651.7113
754.4472
26758.79
31725.65
27796.37
31061.12
26758.79
31725.65
27796.37
17376.18
21576.17
21150.24
17559.4
17376.18
21576.17
21150.24
25612.81
22613.07
20056.26
22125.63
25612.81
22613.07
20056.26
25790.31
25721.61
27296.77
23362.08
25790.31
25721.61
27296.77
45389.03
50847.12
45338.99
50762.33
45389.03
50847.12
45338.99
498.5508
558.014
558.078
631.0536
713.9094
631.3235
714.0508
62764.29
62800.26
62764.29
56505.42
56366.87
56505.42
56366.87
22620.94
19543.61
22620.94
22364.78
19399.16
22364.78
19399.16
12835.6
10823.45
9540.415
11082.25
12835.6
10823.45
9540.415
415.4391
430.3521
415.4387
479.9529
526.4103
479.9533
526.4066
514.8381
458.499
458.4959
716.2079
599.3946
716.1508
599.3769
62785.75
62763.73
62785.75
56398.71
56339.72
56398.71
56339.72
22833.25
20052.62
19740.71
23248.46
22833.25
20052.62
19740.71
12518.26
10635.02
10479.77
12741.01
12518.26
10635.02
10479.77
21963.38
20746.68
18404.71
19713.63
21963.38
20746.68
18404.71
551.8088
532.4309
592.5553
624.8037
551.8075
532.4295
592.5535
23508.07
20968.48
20307.7
22186.66
23508.07
20968.48
20307.7
1742.246
1429.182
1742.251
1514.911
1244.416
1514.919
1244.425
7511.374
8874.867
9613.317
6436.442
7511.374
8874.867
9613.317
8690.695
7120.105
7135.602
8771.099
8690.695
7120.105
7135.602
62997.61
63041.89
62997.61
57080.64
56947.14
57080.64
56947.14
22372.63
19375.39
22372.63
21542.8
18781.9
21542.8
18781.9
399.9867
398.8944
400.0153
414.4444
411.1986
414.4456
411.2092
398.2056
402.9438
398.1967
431.8067
419.0924
431.805
419.0897
515.2753
479.1052
515.2771
494.0239
462.2204
494.026
462.223
525.1271
491.2519
497.2279
536.8885
525.1266
491.2521
497.2282
10001.08
8579.595
7987.611
9659.513
10001.08
8579.595
7987.611
41422.53
39115.66
42782.88
44188.79
39115.66
42782.88
44188.79
16796.77
14344.69
16796.77
14239.97
16692.77
14239.97
16692.77
39432.25
35180.85
39432.25
36786.53
40361.17
36786.53
40361.17
393.3314
396.2058
393.3319
412.2837
420.4767
412.285
420.4775
398.7949
398.6218
398.5679
413.0287
407.7929
413.0487
407.8119
12115.87
10231
10226.71
12081.72
12115.87
10231
10226.71
17987.82
14948.92
16449.57
17014.41
17987.82
14948.92
16449.57
541.9352
623.446
623.4324
666.7154
808.533
666.5738
808.4986
36459.56
40955.73
40951.73
36377.13
36459.56
40955.73
40951.73
1020.773
1274.288
1052.059
856.0707
1020.818
1274.305
1052.076
752.4077
766.7637
901.5529
886.8337
752.4066
766.7624
901.5515
44771.96
44876.03
50452.39
50594.58
44771.96
44876.03
50452.39
30031.81
27419.93
31021.03
26136.03
30031.81
27419.93
31021.03
531.6305
492.1186
512.5264
476.7584
531.6311
492.1192
512.5273
62793.87
62828.33
62793.87
56419.37
56511.17
56419.37
56511.17
62876.53
62933.34
62876.53
56800.76
56627.38
56800.76
56627.38
8773.636
8942.7
7486.914
7412.242
8773.636
8942.7
7486.914
16669.57
14266.12
16669.57
13889.9
16209.57
13889.9
16209.57
62860.25
62873.38
62860.25
56629.32
56701.8
56629.32
56701.8
1534.689
1269.738
1269.731
3449.363
2740.914
3449.362
2740.912
2619.299
2133.432
2619.299
2318.675
1864.051
2318.678
1864.057
387.1002
389.3018
388.6738
388.6743
389.3022
392.5547
392.556
388.4632
391.613
390.9873
390.9783
391.6951
397.2914
397.2767
401.609
400.855
415.3603
400.8434
415.3766
413.3979
413.4054
388.5127
390.4976
394.2602
394.3516
390.498
398.0824
398.1031
62628.27
62704.59
56030.49
56030.49
62704.59
56255.85
56255.85
62538.16
62751.39
56055.54
62751.39
56055.54
56689.57
56689.57
12196.17
10322.8
12196.17
12104.96
10253.83
12104.96
10253.83
13737.56
11906.85
14151.04
11374.41
13737.56
11906.85
14151.04
806.0488
1014.325
806.0543
2136.279
1682.837
2136.281
1682.841
489.7213
448.3045
448.1602
576.4478
516.514
576.1021
516.4924
400.6953
399.9184
415.5518
399.9183
415.5491
413.3526
413.3505
388.0754
392.367
390.0549
390.0555
392.3667
397.4161
397.4157
472.6962
447.5479
451.7998
433.2525
472.6957
447.548
451.8008
12147.08
10283.94
12147.08
10000.35
11825.28
10000.35
11825.28
10397.83
8958.929
8463.276
11042.53
10397.83
8958.929
8463.275
8681.117
7257.556
8681.117
7183.522
8616.097
7183.522
8616.097
7758.319
6035.687
7223.208
8889.804
7758.319
6035.687
7223.209
3701.868
4788.077
5854.746
4587.784
3701.869
4788.078
5854.746
62890.75
62848.19
62890.75
56639.35
56508.81
56639.35
56508.81
13129.25
10562.52
10806.81
12985.97
13129.25
10562.52
10806.81
36115.79
40575.24
40801.07
35689.51
36115.79
40575.24
40801.07
2758.842
2393.243
3118.775
2079.98
2758.814
2393.224
3118.768
6776.361
5554.967
5024.855
6254.754
6776.361
5554.967
5024.855
5974.027
4911.546
5974.026
5853.596
4705.747
5853.596
4705.746
44645.23
50530.48
44957.43
50356.15
44645.23
50530.48
44957.43
12072.46
9783.782
8743.572
10764.81
12072.46
9783.782
8743.572
62782.64
63470.97
62782.64
56524.43
58488.33
56524.43
58488.33
4684.715
5164.327
4035.477
3622.916
4684.713
5164.326
4035.475
59852.62
55233.32
53877.26
50750.1
55233.32
53877.26
50750.1
1042.89
872.014
1042.886
2046.413
1709.418
2046.414
1709.418
2941.958
2511.631
3658.453
3103.642
2941.961
2511.633
3658.454
22523.65
19387.51
19509.72
22331.73
22523.65
19387.51
19509.72
8679.222
7285.875
8679.222
8447.064
7120.285
8447.064
7120.285
63071.37
63035.02
63071.37
57109.99
56982.21
57109.99
56982.21
4025.599
5842.789
3805.433
5022.036
4025.598
5842.788
3805.434
62855.13
62823.04
62855.13
56631.98
56695.33
56631.98
56695.33
400.2603
406.1706
400.2616
451.1627
432.6271
451.1634
432.6279
62791.85
62786.65
62791.85
56413.3
56420.09
56413.3
56420.09
4012.488
3239.359
4012.487
2921.486
3744.529
2921.487
3744.529
433.9952
422.2566
437.5042
427.3198
433.9978
422.2613
437.5082
6080.548
5051.545
6080.548
4991.158
5967.388
4991.158
5967.388
39320.03
37470.82
40869.27
35413.55
39320.03
37470.82
40869.27
51035.49
50778.09
45293.74
45650.82
51035.49
50778.09
45293.74
4126.205
3365.657
4126.205
4057.382
3245.447
4057.381
3245.447
2735.37
2192.776
2735.37
2004.202
2574.631
2004.201
2574.631
1065.906
1069.605
1266.874
1314.307
1065.905
1069.604
1266.874
425.3973
415.8561
437.1304
423.5371
425.411
415.8689
437.1354
1770.684
1447.2
1770.684
1601.673
1310.316
1601.672
1310.315
646.4848
576.1548
708.0784
621.394
646.4858
576.1564
708.0791
28646.16
31974.55
29754.11
32643.03
28646.16
31974.55
29754.11
5220.49
5973.06
6226.019
4701.577
5220.49
5973.06
6226.019
759.5693
586.6715
661.8504
662.0875
759.5727
586.6771
661.8509
52149.33
50999.23
54387.6
46709.22
52149.33
50999.23
54387.6
33280.67
38209.31
38515.64
32389.57
33280.67
38209.31
38515.64
39356.38
39842.91
35174.86
34409.9
39356.38
39842.91
35174.86
45887.39
51261.7
45947.14
51392.69
45887.39
51261.7
45947.14
10068.81
10656.04
11905.26
8718.977
10068.81
10656.04
11905.26
5629.38
4500.462
3908.255
4816.504
5629.38
4500.462
3908.255
32261.88
34086.28
30656.89
32445.05
34086.28
30656.89
32445.05
45734.55
45872.71
51185.87
51338.07
45734.55
45872.71
51185.87
17553.5
16918.01
15348.04
19216.4
17553.5
16918.01
15348.04
476.242
474.8081
460.1616
499.2685
476.2428
474.8089
460.1642
434.6636
448.2136
445.8464
457.7856
434.6741
448.2175
445.8524
478.5108
494.0374
467.6182
507.8695
478.5111
494.0366
467.6187
12931.82
10760.37
10843.54
13087.27
12931.82
10760.37
10843.54
473.8806
605.7607
504.5398
580.5396
605.8119
504.5694
580.5581
530.8341
587.6144
532.2699
489.9316
530.8361
587.6157
532.2718
447.6384
434.3713
455.8955
474.471
447.6382
434.371
455.8958
552.3135
516.0955
482.8131
508.6059
552.3157
516.0977
482.8141
456.2251
484.5059
459.5926
438.3776
456.2268
484.5079
459.5935
608.7215
557.7271
607.3638
680.2852
608.7254
557.7313
607.3713
500.5497
514.2486
547.5115
477.5314
500.5581
514.2527
547.5196
396.835
399.1083
396.8299
407.7351
403.3124
407.7351
403.3031
392.3933
394.9069
392.3876
409.9663
403.2319
409.963
403.2306
454.7144
433.947
454.7182
442.9325
429.1779
442.9366
429.1849
396.5147
390.8031
396.5408
401.8317
395.9966
401.8502
396.001
49957.55
44352.93
49957.55
44909.05
50324.06
44909.05
50324.06
510.2385
524.0904
485.6595
557.4726
510.2403
524.0922
485.6615
50272.42
45210.46
50272.42
47287.71
51462.19
47287.71
51462.19
834.6863
717.8045
834.6866
668.4323
770.6458
668.433
770.6463
433.8505
444.1499
464.2105
451.6948
433.8513
444.1509
464.2112
1189.442
989.6287
1189.442
906.1239
1081.474
906.1239
1081.474
1893.529
2584.378
2108.889
2349.142
1893.53
2584.379
2108.89
394.7869
392.112
394.7881
409.7033
402.9675
409.7035
402.9673
456.73
435.1754
456.7296
443.8904
429.8836
443.8897
429.8823
7614.897
6008.3
6393.935
7234.184
7614.897
6008.3
6393.935
400.6432
397.8889
400.6464
411.0595
404.9324
411.0643
404.9464
396.2672
393.3654
396.2654
409.9892
403.0996
409.9883
403.0939
62772.37
62819.39
62772.37
56532.71
56414.11
56532.71
56414.11
62906.11
62895.24
62906.11
56967.1
56997.87
56967.1
56997.87
28847.46
32800.63
29801.14
32429.74
28847.46
32800.63
29801.14
63698.68
63415.77
63698.68
57979.46
59052.43
57979.46
59052.43
1126.585
1639.004
2218.341
1789.152
1639.018
2218.347
1789.159
1233.99
1219.926
1219.925
2540.126
2495.66
2540.124
2495.662
427.086
414.2649
427.063
450.6533
477.5211
450.6528
477.5197
405.7391
420.8951
420.4906
432.8341
420.9148
420.5139
432.8456
2094.459
3444.731
4162.132
3096.165
3444.732
4162.132
3096.167
25000.45
26538.25
22689.92
23664.76
25000.45
26538.25
22689.92
3077.476
3875.06
2456.647
2996.953
3077.477
3875.062
2456.648
13538.47
15831.28
15553.42
13225.95
13538.47
15831.28
15553.42
1182.866
988.6989
1182.872
878.9422
1037.52
878.9493
1037.529
863.974
881.8954
1031.442
755.5378
864.0182
881.9075
1031.445
440.2763
492.0483
462.4714
461.1404
440.2769
492.0503
462.4732
474.5954
447.3925
456.6853
434.5737
474.5974
447.3945
456.687
428.9895
417.5608
411.1712
420.9113
428.9908
417.5619
411.1688
425.1002
440.4893
413.6609
423.684
425.0996
440.49
413.6601
406.3644
418.4574
429.2732
417.6887
418.461
429.2771
417.6973
395.057
408.7875
406.3937
398.0378
408.7902
406.4007
398.0402
45296.26
45217.15
50564.67
50686.49
45296.26
45217.15
50564.67
7164.781
8625.301
7200.458
8652.997
7164.781
8625.301
7200.458
62973.05
62956.98
62973.05
56817.46
56871.62
56817.46
56871.62
47183.47
48079.24
52104.94
51803.38
47183.47
48079.24
52104.94
11542.89
14888.33
13334.51
13188.27
11542.89
14888.33
13334.51
979.9977
1073.417
1446.432
1552.404
1073.408
1446.429
1552.403
3312.039
3680.537
4255.222
4089.621
3312.039
3680.537
4255.222
5202.385
6082.956
4941.254
5956.908
5202.385
6082.956
4941.254
423.3242
439.6289
413.3552
424.5198
423.3239
439.6291
413.355
405.7643
429.4874
418.2293
417.7278
429.4865
418.2282
417.7261
396.3262
399.6864
396.3258
410.5795
404.3178
410.5787
404.3171
50966.78
45593.64
51065.77
45425.71
50966.78
45593.64
51065.77
4779.004
5128.794
6053.942
5908.483
4779.003
5128.794
6053.942
12742.19
14941.57
13953.43
16111.18
12742.19
14941.57
13953.43
1356.066
1077.331
1275.259
1087.432
1356.064
1077.328
1275.258
18298.28
18864.36
17049.14
20365.04
18298.28
18864.36
17049.14
449.5786
469.2229
451.5107
467.3316
449.58
469.2236
451.5128
16101.56
18180.35
16314.86
18417.18
16101.56
18180.35
16314.86
18243.55
17887.83
20111.46
20770.83
18243.55
17887.83
20111.46
8162.715
7227.935
6991.417
6077.3
8162.715
7227.935
6991.417
740.0069
822.5928
971.8608
861.6351
740.0064
822.5925
971.8594
8601.265
8594.439
7196.117
7166.007
8601.265
8594.439
7196.117
7941.899
6927.56
6702.325
8207.686
7941.899
6927.56
6702.325
3980.049
4453.127
4057.976
3383.8
3980.05
4453.126
4057.976
1020.263
1168.219
1221.618
1420.794
1020.26
1168.216
1221.613
5880.365
4990.765
5744.223
4978.625
5880.365
4990.765
5744.223
4254.731
4727.819
5449.307
5034.991
4254.731
4727.819
5449.307
458.2073
446.4567
445.3259
434.9212
458.2096
446.4619
445.3299
589.0623
726.093
725.9234
1208.314
897.2881
1208.118
897.1424
)
;

boundaryField
{
    blWall
    {
        type            zeroGradient;
    }
    iWall
    {
        type            zeroGradient;
    }
    lWall
    {
        type            externalWallHeatFluxTemperature;
        mode            flux;
        kappaMethod     solidThermo;
        kappa           none;
        alphaAni        none;
        alpha           none;
        q               uniform 1e+07;
        qr              none;
        refValue        uniform 0;
        refGradient     uniform 28571.43;
        valueFraction   uniform 0;
        value           nonuniform List<scalar> 
96
(
66201.07
66249.25
66081.65
66174.48
66051.56
66160.4
66089.41
66202.78
66221.13
66233.8
66218.61
66226.11
66171.31
66124.18
65936.57
66241.46
66061.24
66243.65
66150.74
66238.66
66145.69
65988.92
66083.45
66247.76
66201.07
66176.74
66176.74
66247.69
66247.69
66249.25
65930.25
65930.25
66081.65
66182.96
66182.96
66174.48
66051.56
66076.81
66076.81
66160.4
66179.15
66179.15
66089.41
66110.88
66110.88
66202.78
66214.24
66214.24
66221.13
66226.65
66226.65
66233.8
66230.19
66230.19
66218.61
66211.19
66211.19
66226.11
66222.68
66222.68
66171.31
66185.99
66185.99
66132.39
66132.39
66124.18
65936.57
65952.33
65952.33
66241.46
66244.35
66244.35
66061.24
65998.75
65998.75
66243.65
66238.81
66238.81
66132.83
66132.83
66150.74
66233.97
66233.97
66238.66
66160.74
66160.74
66145.69
65988.92
66019.36
66019.36
66136
66136
66083.45
66249.02
66249.02
66247.76
)
;
    }
    oWall
    {
        type            zeroGradient;
    }
    flWall
    {
        type            zeroGradient;
    }
    solid_to_fluid
    {
        type            compressible::turbulentTemperatureTwoPhaseRadCoupledMixed;
        refValue        nonuniform List<scalar> 
176
(
387.5932
387.6464
385.5384
385.5919
387.3184
387.26
385.6295
387.2039
385.7668
385.6723
386.0323
387.4768
386.5776
387.1026
385.5332
386.0316
385.7752
386.3627
385.547
385.5565
386.4118
385.5212
386.9126
385.573
385.5015
385.8675
385.8943
387.0588
384.9995
385.0034
386.2882
386.2929
386.6432
386.5143
385.7088
386.344
387.3199
385.7006
386.9724
386.9126
385.7033
386.3303
385.0027
386.7164
387.8746
387.1007
387.433
387.8364
387.4463
387.6525
385.5568
385.5815
385.5964
385.6179
385.6067
385.6329
387.4118
387.299
387.4094
387.278
387.3826
387.3955
385.6451
385.6475
385.6638
387.2356
387.3138
387.3568
385.8453
386.0421
386.0224
385.7801
385.6919
385.8068
385.9966
385.8383
385.7934
387.3851
387.6742
387.5942
386.615
386.3486
386.5261
387.1376
387.2078
387.2407
385.5402
385.5419
385.5425
386.1836
385.9586
386.0882
385.7315
385.7505
385.7304
386.3508
386.4792
386.4498
385.533
385.5319
385.5215
385.5533
385.5364
385.5345
386.5837
386.4246
386.5815
385.5104
385.4942
385.4817
386.6764
387.208
386.8396
385.581
385.5826
385.5518
385.4688
385.4988
385.4657
386.0526
385.8634
386.0485
385.8666
386.0562
386.0474
387.1726
387.0822
387.1931
384.9991
385.003
385.0037
385.0033
385.0034
385.0033
386.3909
386.309
386.4016
386.2976
386.5379
386.5986
386.747
386.6292
386.9231
386.4201
386.5128
386.4268
385.7044
385.7263
385.7264
386.3403
386.4354
386.4288
387.3974
387.435
387.7471
385.7163
385.7023
385.7214
386.9732
386.1787
386.1478
386.9273
386.8704
386.8727
385.703
385.7257
385.7242
386.3208
386.4175
386.4103
385.0032
385.003
385.0032
386.7187
386.3851
386.3846
)
;
        refGradient     uniform 0;
        valueFraction   nonuniform List<scalar> 
176
(
0.9159778
0.9217712
0.8415264
0.8264119
0.8126376
0.8602655
0.8117471
0.8559308
0.753074
0.7970662
0.6182317
0.9399781
0.1828039
0.8581516
0.843054
0.8386104
0.8775893
0.8455639
0.4001027
0.2774959
0.9363499
0.2895489
0.9249533
0.712187
0.1009137
0.3799373
0.2533034
0.8645796
0.386401
0.3614637
0.8757089
0.6522233
0.9190359
0.9097554
0.8748883
0.8542668
0.9048734
0.8594272
0.2001258
0.8933826
0.881121
0.8661687
0.3731296
0.9089681
0.916051
0.9069526
0.9070152
0.9218276
0.9054153
0.9055425
0.8432464
0.8369781
0.8385586
0.8200258
0.8271782
0.820488
0.8956112
0.8660166
0.8634992
0.862113
0.8630351
0.8621781
0.8072948
0.8121821
0.8077136
0.8580883
0.8587064
0.859936
0.6401813
0.9264405
0.9264777
0.7981468
0.7973836
0.7984258
0.5335831
0.8800675
0.8795909
0.9202021
0.9400067
0.9203305
0.9074826
0.8387449
0.8398404
0.8560668
0.859355
0.8582908
0.842403
0.8063136
0.7989953
0.8229036
0.04578457
0.05270104
0.8759863
0.8762499
0.8749162
0.8498266
0.8448677
0.8462191
0.3238719
0.7157958
0.3246952
0.6207158
0.5790969
0.7322966
0.9142762
0.9363322
0.9142676
0.1902561
0.289075
0.1895252
0.9356332
0.9249865
0.9356468
0.165293
0.6843569
0.1661423
0.3208976
0.2905789
0.6019361
0.3854563
0.3552577
0.3594104
0.3642166
0.2591029
0.3687524
0.8647265
0.8621093
0.8626012
0.4325842
0.3640916
0.4097331
0.3635461
0.360448
0.3707571
0.8676644
0.8758853
0.8671115
0.5908691
0.9335584
0.9333521
0.6820473
0.8745175
0.8762172
0.9302269
0.9097467
0.9302394
0.8771309
0.8746612
0.8758474
0.8591247
0.8480216
0.8531608
0.2177032
0.9125224
0.9132124
0.859036
0.8559222
0.8542552
0.9556755
0.8726005
0.8735425
0.8933833
0.9037841
0.9037874
0.8867014
0.8794836
0.8849924
0.8723991
0.8588413
0.8640874
0.3559146
0.4058702
0.3767666
0.9089663
0.9091507
0.9091386
)
;
        value           nonuniform List<scalar> 
176
(
483.975
476.4634
385.9404
386.7235
406.7497
391.0344
387.9848
389.0765
432.9697
390.4625
435.2082
416.5598
454.6035
387.9915
385.7792
386.4289
391.2322
391.4915
393.8247
395.0927
415.4893
395.1728
438.6084
387.0766
388.127
395.6093
394.8145
387.2434
394.6318
386.9646
386.5623
456.8788
395.6641
443.1703
388.2686
388.7642
402.0349
385.8974
488.1388
477.2253
386.9517
387.4791
394.2074
476.351
484.1482
469.2275
469.4729
476.5741
472.1907
472.2629
385.9516
386.3108
386.3163
387.2681
386.7309
387.2763
398.0929
395.4726
395.7018
392.767
391.0646
392.8626
388.988
387.9942
388.9963
389.8749
389.1345
389.9444
454.6444
409.1954
409.1673
392.6335
390.4715
392.6491
446.0884
394.5526
394.5473
439.6929
416.7312
439.8007
394.3272
394.2365
394.3351
388.4517
388.0738
388.5196
385.7861
386.1485
386.172
386.5961
393.88
393.916
389.4157
391.27
389.4464
389.8477
391.6138
390.0149
395.3055
389.3296
395.3092
390.5755
391.0444
389.0236
443.1178
415.5054
443.1197
394.6803
395.1727
394.6791
417.9241
438.8583
418.07
394.7074
387.2304
394.7149
387.5021
389.8358
387.9454
395.6127
395.529
395.5259
395.2612
394.8229
395.2629
387.3471
387.6207
387.7132
393.9054
394.4876
393.8073
386.9585
389.7128
389.6366
386.6717