/*--------------------------------*- C++ -*----------------------------------*\
| =========                 |                                                 |
| \\      /  F ield         | OpenFOAM: The Open Source CFD Toolbox           |
|  \\    /   O peration     | Version:  1912                                  |
|   \\  /    A nd           | Website:  www.openfoam.com                      |
|    \\/     M anipulation  |                                                 |
\*---------------------------------------------------------------------------*/
FoamFile
{
    version     2.0;
    format      ascii;
    class       volScalarField;
    location    "40000/fluid";
    object      alpha.gas;
}
// * * * * * * * * * * * * * * * * * * * * * * * * * * * * * * * * * * * * * //

dimensions      [0 0 0 0 0 0 0];


internalField   nonuniform List<scalar> 
4960
(
2.560347e-18
2.62417e-05
1.718528e-08
8.502393e-11
3.293831e-05
0
2.501869e-07
0.130561
0
5.942967e-17
5.200346e-07
0.2531756
0
1.583461e-07
0.05918542
0
0.001808629
0
1.605769e-20
0.08632086
0.1127704
1.068553e-27
9.298779e-21
3.419059e-06
0.001904041
0
0.06310472
2.216103e-11
0.01649753
0.0002106765
0.04965707
0.05601023
0.1325624
0.04012868
0.03653507
0
5.382628e-09
0.0001683703
0.00729334
3.710965e-05
3.449286e-23
2.614104e-05
1.5926e-12
0.0717497
0.0646312
5.149755e-05
1.900291e-14
0.07476359
1.804026e-12
0.02677305
1.1348e-07
9.470271e-08
0
0
1.785137e-16
0
1.962027e-13
3.570413e-10
0
2.075192e-09
0.02935376
1.756241e-09
4.493302e-19
6.757949e-26
0.2059992
1.672743e-05
0.0838979
2.523683e-07
0.2560641
1.409589e-08
0
1.667534e-08
1.556969e-08
0.005172351
3.819563e-22
0.03901534
1.842469e-10
1.610114e-17
0.0003684416
0.1354916
0
1.655799e-07
0
7.937435e-28
0.001342756
0
0
0.007449089
0
0.003289993
0.008900229
0.01164259
0
1.282077e-48
6.014792e-06
0.2007525
0.01151216
0
0.003012677
0.0002936209
0
2.119475e-24
6.709611e-10
0
0.0001475679
0
3.207013e-16
1.154735e-10
4.293329e-15
2.247241e-06
2.748097e-05
0
0.001720533
0
0.008244372
6.792951e-12
0.003608555
0
0.0003448915
0
3.669241e-13
7.153659e-05
9.518789e-11
0.09310865
1.255888e-19
1.000444e-22
6.717586e-19
0
1.44436e-09
3.829526e-05
5.933602e-10
1.41424e-10
8.088304e-08
2.471412e-14
0.0005750939
0.001835286
0.006710219
0
0.002079213
0.000108081
5.660753e-20
1.316541e-06
0.2443651
1.075683e-06
0.1422061
0.09962994
0.201044
3.897247e-22
1.241954e-05
0
0
0.2511998
0.0917057
0.006102866
0
2.8696e-05
0.1998269
0
0.125854
0.1239474
0.2508301
0.2423452
0.1103936
6.412273e-25
0.0865847
0
0
1.698507e-16
0
2.286942e-09
1.717585e-08
0
0.0002146337
3.563383e-10
0.0007182366
2.978488e-05
3.113055e-14
0.08572103
2.914282e-15
0.09755882
4.855516e-15
0.01090044
0.1265044
1.756406e-06
0.09257006
0.08636039
0.07037833
3.603361e-06
4.000096e-07
0.08252422
3.516323e-17
2.023012e-07
2.249257e-06
0.169216
1.210024e-08
1.315509e-08
7.720521e-06
0.1068099
1.552043e-07
0.0007282691
0.132781
0.05963161
4.425608e-10
0.00529242
9.592796e-06
7.530341e-06
0.0003394247
0
0.0001813915
0.0001778664
0.1140587
0.0005123378
0.02616316
4.276847e-05
2.939072e-05
0.1114188
3.43774e-19
0.03271499
0.0001074482
0.1516026
3.186144e-15
2.989289e-08
4.08224e-14
0
0.2507482
2.415324e-07
1.554757e-19
0.1313662
4.115861e-20
0.006792283
0.2468802
0
0
0.1703582
0
0
0
0.236786
0.002520979
9.431876e-10
0
0.03173078
0
2.935116e-21
2.934892e-09
0.01440557
0.2408254
0
2.937974e-05
0.05429114
0
1.558841e-21
0.001041239
0.0001648775
3.904478e-05
1.534946e-06
2.094253e-11
0.0001097194
0.0006729669
6.384345e-08
0
0.0007042996
0.1718566
0.07565662
0
0
9.742839e-22
0.0002752539
3.601241e-30
0.03520959
0.2537471
0.01858921
4.972644e-05
0.07055054
2.032871e-06
0.00106066
9.799927e-13
0.001416535
0.00042886
0.07842239
0.1658214
0.1152794
0.1690977
0.0001785121
3.372275e-10
0
0
0
0
1.474495e-05
3.069521e-06
0.1178889
0.04109326
4.748357e-05
0.0131842
0
0.04036764
0.07885981
0.1881185
7.200002e-16
0.04235856
0.2164697
0.03500449
3.91202e-15
2.379611e-25
0.09808425
0.03407322
4.501463e-07
3.212146e-27
6.209349e-07
0.1084234
0
0.008648566
0.03126507
0.05005074
0.0002882876
1.591115e-10
0.001099621
0.04491665
0.002699223
0.01820347
0.007727385
0.009871363
0.04408386
0.001068077
0.008511729
0.005388413
0.01532558
0.03630138
0.00513232
5.836604e-15
2.949579e-24
1.447139e-05
6.03554e-12
0
4.188747e-18
0
4.264777e-30
3.93641e-09
0.1074925
0.05998251
0.03214874
0.04060267
1.387319e-08
0.2721037
0.04504901
0.2474877
1.030977e-09
2.378693e-26
2.564266e-10
1.745628e-06
0.1159092
5.474819e-09
7.366665e-08
4.819345e-41
1.331645e-08
0.0012119
0
1.090339e-19
0.1691448
1.31598e-06
1.686396e-06
0
0.0008797155
0.2364513
1
2.44006e-05
0.1405795
5.436095e-05
0
0.07037757
0.008964933
2.303523e-05
1.446536e-18
0
2.808301e-05
0.03849586
0
0.2618929
0.002989778
1.997283e-09
0.2769427
3.754156e-08
0.05992863
0.1935067
0
4.72451e-06
0.0001795099
6.454556e-08
4.213636e-05
6.333581e-09
0.02353863
0.03141855
0.05938278
0.1724134
1.275619e-10
0.01659304
0
0.002671041
6.346664e-33
0.002693477
6.39091e-05
1.03562e-08
0.0596076
0.01035759
0
0
0.07884137
0.1735021
0.2073493
0.02051765
0.2146784
1.545449e-10
0.272439
6.704243e-10
0.07370068
0.1662094
3.931315e-08
0
2.126748e-33
1.137117e-12
0.1694017
4.071798e-07
0.0003371631
4.128253e-11
0.000239561
0.00505396
0
0.1463087
0.01942036
1.35188e-05
0.06837638
0
2.826176e-09
1.34814e-07
8.573857e-21
0.05627795
1.515266e-09
3.41298e-11
0.07930245
1.098163e-13
6.864801e-08
0
0.2328464
0.01993319
0.2408136
7.757777e-09
0.001135055
2.78215e-10
0.0004286008
0
3.196718e-16
5.429768e-27
0.2702246
0
2.874468e-30
0.2510084
4.521398e-16
4.49571e-25
7.046123e-08
7.537138e-05
6.211715e-29
0.2083281
3.626109e-06
0.1490087
5.21329e-11
5.420114e-14
2.403873e-06
0.1690221
0.01949149
0.04393709
0.07801474
1.931743e-09
0
3.084388e-07
0.07126533
0.02215035
3.812731e-08
3.4383e-10
1.695948e-22
0.09067957
1.562578e-13
3.461454e-37
6.732853e-11
6.585247e-18
5.299596e-19
0.09623496
1.158698e-07
0.2598791
1.874663e-28
0
2.921424e-12
0.08358261
1.308291e-27
6.317582e-11
0.1976937
0.005051734
1.291049e-13
0
0.04391638
2.656487e-12
0.08621414
0.2377908
0.08079293
0.07908986
0
0
2.60092e-08
0.09103443
4.752338e-41
0.0005243115
6.36516e-17
0.1087161
8.836444e-31
6.384952e-18
5.905396e-14
0.1735054
0.08242639
0.1534813
0
1.543618e-06
0.07921884
1.450132e-12
0.09366578
0.129375
0
0
1.159924e-05
3.010532e-07
0
2.328239e-05
5.502239e-12
1.62019e-14
0.2300895
0.1425858
9.792412e-10
4.452578e-05
1.071834e-05
2.193469e-05
0
1.712659e-23
0.1050311
0.2461898
1.107359e-13
0.07477561
0.00258293
0.1145018
8.184017e-19
0
0.1779285
0.001376431
0
0.0007800559
1.111859e-30
2.892362e-08
4.009381e-14
0.001611468
0
0
2.642211e-05
0
4.563156e-08
0
0.04095402
0.0051853
0.03526422
0
4.217171e-27
0
6.996745e-09
0
0.02508499
0.04858533
3.041667e-11
0.07154516
7.442273e-08
1.145688e-07
0.2041452
2.884771e-08
0.06571132
0.03618089
2.277631e-08
1.200883e-13
1.524989e-06
0.1725009
4.293469e-09
0
0.152117
2.490061e-42
0.0002280246
1.093991e-06
1.339396e-05
0
0
6.360747e-18
0.2353173
4.433371e-18
0.03047908
0.07834025
3.070566e-12
2.171567e-37
2.554368e-09
9.314651e-12
0
0
5.355754e-08
6.081643e-14
0.03551755
1.777294e-10
0.03049626
0.1107032
0.07108594
0.06638091
2.064096e-06
1.567128e-18
0.1777541
0.1196391
3.213467e-17
5.158838e-37
0
1.178305e-16
1.911743e-17
1.566593e-16
1.137716e-17
2.724888e-17
0
1.819627e-18
4.906166e-05
4.217551e-07
2.082506e-06
2.112717e-26
5.385189e-06
1.023572e-21
3.927697e-22
8.043106e-08
1.350143e-09
1.283933e-07
4.658209e-09
0
0
4.094285e-08
8.338598e-11
1.222067e-11
9.928084e-11
8.23972e-10
3.970844e-10
6.930734e-10
0
0.03623501
0.02797479
0.007112091
0
0.1221341
0.06031444
0.1150999
0
0.002981735
0.0005670144
9.22474e-05
0
0
0.0003503403
0
0
0
6.423006e-26
5.975312e-12
4.092421e-07
0
0.130561
0.1136106
0.08438553
0.003836716
0.1259093
0.005694563
0.1185964
0.0001596373
0.0001067453
3.284896e-05
0
0
1.948621e-22
4.146659e-07
3.779723e-20
3.130323e-18
0
2.961881e-15
3.991846e-14
1.814799e-31
2.903678e-30
1.006933e-06
0.0001199314
2.199813e-05
8.420104e-05
0.0001021105
2.275849e-05
1.302882e-05
0.2537109
0.2524871
0.2573242
0.2334136
0.243488
0.2429516
0.2442073
3.716707e-28
0
1.745195e-11
1.266584e-26
1.562146e-09
6.451122e-10
1.421073e-10
1.753761e-21
0.01742448
0.001977628
7.860909e-21
9.976951e-20
0.005924372
0.0006463436
0.04476825
0.06107075
0.02888979
0.04916446
0.00760233
0.05670926
0.02296159
0
0.04714199
0
0.1320634
0.1009591
0.1282493
0.03375917
0
0.0004085214
0.001083774
0
0
0
0
7.797963e-33
2.475662e-13
1.72813e-13
3.940658e-14
6.511558e-14
2.183316e-12
2.215541e-12
1.909587e-18
2.269538e-18
2.593147e-18
1.399478e-18
2.426653e-18
4.774423e-21
8.203381e-19
0.06366123
0.08441684
0.08636414
0.08204223
0.08636414
0.08071661
0.08636414
0.07292784
0.04884532
0.1290348
0.1234941
0.0456988
0.02925132
0.1321369
4.249539e-11
1.154519e-10
1.650932e-10
2.122558e-11
0
1.904813e-27
1.823353e-10
1.261432e-21
1.349228e-26
1.28401e-19
4.265754e-18
2.29963e-19
1.308976e-18
9.841836e-18
2.303341e-27
2.887776e-08
2.743467e-07
0
5.146336e-08
1.125894e-06
5.379492e-06
6.200118e-05
0.003155332
2.371051e-06
0.001223051
0.04788317
0.0008578441
0.1083721
5.213731e-13
0
5.512651e-11
6.690073e-27
0
2.601695e-27
4.092835e-11
0
0.00516814
1.061954e-18
0.09329312
0.01214231
5.056397e-18
0.1212773
5.458303e-10
3.563583e-10
7.821026e-10
7.155747e-10
3.931015e-11
6.44031e-10
9.153034e-10
2.801147e-21
0.0001224811
0
0.1335593
0.1371182
0.1316424
0.1301615
0.001662887
0.0004209362
0.0001187517
0.01368499
0.01318656
0.03331751
0.005966758
0.09018357
0.01921838
0.07067793
0.1044415
0.07883537
0.103649
0.02704239
0.03173356
0.04237958
0.04130286
0.066184
0.05931601
0.03910751
0.06177168
0.1223876
0.1327387
0.1317808
0.1317033
0.1357423
0.05173675
0.11058
0.06628444
0.06579119
0.02512237
0.04740112
0.0300356
0.03712618
0.02640864
0.003217215
0
0.04915757
0.01402301
0
2.992997e-19
0.007831106
1.536503e-17
0
3.386334e-17
4.050257e-16
7.142804e-14
1.467791e-14
1.28743e-31
6.841963e-09
5.893171e-09
5.671999e-07
1.263061e-09
4.480755e-09
1.327842e-07
4.198498e-07
0.005372902
0
0.002257669
0.002549248
0.001496364
0.001468569
0.00899502
0.01386242
0.001012201
0.003326084
2.956057e-06
0.01292804
3.556586e-05
0
4.038829e-06
6.745301e-07
3.497956e-06
0
2.768439e-11
1.94069e-08
2.735418e-06
0
5.187919e-23
6.214939e-05
0
0
2.078186e-23
0
0.0002080443
0
3.109614e-05
0.0001188101
0
2.899383e-05
1.160588e-05
3.716707e-28
5.9507e-13
5.649416e-12
1.025911e-13
1.019172e-12
1.766571e-16
5.807355e-30
0.004295719
0.05226743
0.07730523
0.0667421
0.000360403
0.06989975
0.07422255
0.0177708
0.06043711
0.08319081
0.08746183
0
0.08335536
0.07730423
0.01937456
1.870646e-20
1.596221e-18
0.005788299
0.01947045
0
1.596204e-18
6.600297e-13
0
4.083297e-31
2.215183e-12
2.005109e-13
6.375123e-12
1.635923e-12
7.773937e-06
0.05443436
0.08881929
0.120988
0.120988
0.1221341
0.04995236
3.016242e-11
3.151697e-12
2.615448e-13
2.359238e-30
2.375257e-12
4.219826e-13
5.157956e-12
0.01392733
0.03685841
0.03163176
0.04099221
0.01240461
0.04145489
0.03952677
4.054204e-05
0.0001136044
2.586602e-05
7.287939e-05
0.007661815
4.171247e-05
7.531893e-07
0
1.899082e-09
1.884756e-10
1.220477e-07
0
1.522363e-24
1.731946e-08
0
5.936729e-06
0.0004745105
0
0
0
0
0
6.819826e-05
0.0003538081
4.776217e-10
1.770272e-05
0.0002756981
0.0007455119
0
1.136379e-17
2.414498e-18
9.706523e-19
0
3.667713e-18
7.094912e-17
0
9.850255e-05
0.0004084184
2.819046e-05
7.285132e-05
0.0001122821
0.003402843
1.467352e-20
5.140966e-18
1.226175e-12
0
3.754196e-13
5.204296e-14
0
3.442766e-09
0
0
1.192069e-11
1.237847e-09
1.12265e-10
0
3.556479e-19
1.340089e-25
0
0
0
1.814799e-31
9.489501e-16
5.259769e-10
3.488688e-10
5.449519e-09
4.314525e-09
1.944128e-09
6.530688e-11
7.086138e-10
0.008507481
0.03052402
0.001663718
0.03007501
0.008171311
0.03178836
0.003319043
9.710036e-10
9.687909e-08
3.210251e-09
8.068877e-10
1.028759e-10
9.668982e-08
5.904906e-10
1.055262e-20
8.653634e-38
1.098064e-20
5.213057e-19
2.062552e-20
0
4.885777e-20
9.619921e-28
0
4.632569e-25
5.779896e-24
8.450814e-41
1.566933e-25
2.046686e-25
0.2275299
0.2137754
0.2348003
0.1855001
0.2030505
0.2157355
0.2246963
0.02847787
5.475841e-06
2.994837e-06
0.02954419
0.0111846
0.07062621
0.01432138
0.08222449
0.01902167
0
0.09287018
0.09192108
0.09315252
0.05551155
0
9.540983e-08
5.891235e-07
2.889013e-07
2.265666e-07
1.55984e-06
1.637439e-07
0.2772313
0.2724111
0.2688492
0.2591324
0.2742395
0.2717153
0.2604988
1.122259e-08
7.390577e-08
0
2.834113e-08
2.368871e-08
1.137803e-07
4.844728e-08
9.204272e-12
5.379525e-11
6.205976e-11
0
0
1.380186e-11
1.149923e-11
1.052049e-05
2.45405e-21
2.032403e-05
0
6.872246e-06
0
0
1.089014e-07
7.828036e-09
0
1.976977e-09
4.513928e-11
0
0
0.0001886134
0.0049538
0.01117761
0.005731477
0.01215626
0.01989762
0
0.003027713
0
2.275829e-05
0
0
0
8.675782e-07
0.008726429
0.07620204
0.0103119
0
0.05045558
0.02766748
0.07845045
2.835123e-10
5.473182e-10
6.327907e-10
5.384561e-10
5.782638e-10
8.651582e-10
3.531354e-10
3.544528e-34
0
2.769163e-35
1.454017e-14
8.623449e-18
2.29037e-15
6.524849e-16
2.533209e-21
0.000534264
5.066388e-21
0.0005563253
0
0.0004800818
0
0.172962
0.05534593
0.1508885
0.07815423
0.1686215
0.1149595
0.1048792
1.370467e-13
2.400374e-14
2.043336e-13
9.132641e-14
1.029331e-12
7.908234e-13
7.95357e-14
0
7.876692e-08
1.69264e-06
3.295687e-07
6.019492e-11
1.093368e-07
8.161269e-07
0
3.897213e-22
0.02593971
0
0
0.0008710042
0
3.094488e-26
4.078042e-24
4.393406e-23
2.171711e-39
9.665043e-23
0
0
2.268425e-06
7.536878e-05
8.608638e-05
0.001512721
0.002283224
0.0007373077
0.002893995
1.824705e-07
3.036728e-06
8.732169e-08
0
0
2.688153e-06
3.51155e-06
0.02819886
0
0
0
0.02740174
0
0.0004857221
0.004048279
0.002600112
0.02165469
0.00216968
0
0.008760981
0.00507041
2.31836e-05
7.15627e-05
8.069017e-06
0
1.725136e-05
0.0115074
2.756914e-06
0.007191023
4.142736e-19
0.01141236
0.001012828
0.009844959
0
0.01247168
0.0004851079
0.01525505
2.758928e-06
0
0.005590844
5.456051e-21
0.02242732
1.016528e-05
0
3.058911e-05
0.01125303
0.006658928
0.0006342295
0.0266981
9.514771e-26
7.022154e-09
8.524916e-10
2.374332e-12
3.660957e-26
8.494783e-09
4.061921e-10
3.51396e-15
1.134249e-32
4.52912e-16
1.161715e-10
3.549975e-10
2.523474e-12
1.299033e-10
2.510962e-06
8.587347e-06
3.458514e-07
1.63187e-06
3.508052e-06
1.654477e-07
6.113851e-07
0.2392701
0.2101759
0.2317082
0.2055557
0.2324688
0.2282529
0.2346547
0.004252675
0.04774685
0.0119578
0.007333888
0.0007437015
0.05360252
0.0168616
1.384581e-36
0
6.083962e-20
0
1.00274e-17
2.218358e-19
8.732017e-18
0.0005416974
3.663342e-20
0.0007446808
0.0008280982
0.01250637
0.002902205
0.003609886
0.0001497329
0
0.000863858
0.0002963885
6.822853e-05
0
0.000838143
0
1.779347e-05
4.322402e-22
0.004634321
3.854382e-07
0
0.0009759001
0
2.601327e-10
0
4.985607e-09
0
0.005049542
0
5.762721e-11
7.923656e-10
5.234142e-11
3.759012e-09
1.952662e-09
6.364548e-09
3.032011e-09
0
0.003288856
0.006380598
3.222163e-05
0
0
0.01153732
0.0001051428
3.105042e-05
7.975373e-05
0.0001119497
3.578349e-05
0.0001140889
0.0001473353
1.792086e-10
0
1.567188e-28
0
0
1.440224e-27
2.29101e-10
3.528987e-16
3.477764e-16
5.778554e-17
7.66257e-15
0
1.130813e-14
8.755302e-16
8.651398e-12
2.247757e-11
0
9.08164e-10
3.161606e-09
1.797843e-09
5.377206e-10
1.508943e-14
1.084321e-15
0
7.259194e-31
1.274768e-15
2.757894e-14
1.846151e-14
2.296903e-06
1.417249e-05
1.5589e-21
4.92537e-06
0
0
3.346551e-06
3.820393e-05
2.702757e-05
0
0.0009044679
0.002906505
1.404666e-05
0.0006723386
0
0
0
5.396578e-05
8.44806e-05
7.186471e-05
1.969687e-05
0
0.0005666124
0.0005151741
0
0
0.0002203933
0
0
0.0004361795
0.0005586087
9.162439e-05
4.286949e-21
0
0
0.00918264
0.01762821
0.00335993
0
0.02348609
3.117321e-20
0.01841869
1.029645e-11
3.437992e-10
6.964205e-10
7.954175e-12
3.596917e-10
7.565665e-10
8.999361e-12
9.070004e-05
2.038233e-07
5.14437e-20
0.0001725477
0.0007308492
0.001372471
0.0001904419
0.001042997
0.002137989
0.0005743688
6.020058e-07
2.922932e-22
0
0
0.00044873
0.0003294366
0.0002930618
2.728075e-21
5.608837e-06
0.0001530097
7.708179e-05
3.649347e-06
3.92301e-05
0.0003801339
0
0
3.092658e-05
0.0001738562
4.835423e-14
0
1.29158e-12
7.36451e-12
4.25144e-12
7.433415e-28
2.264251e-12
0.0001141323
7.862068e-05
0.0001378637
1.720005e-05
1.110283e-06
3.177963e-06
0
2.057059e-10
7.840934e-11
3.782902e-10
1.059857e-09
2.03265e-10
1.027389e-09
1.31573e-10
0.1325624
0.04972982
0
0
0
0
0
0.006438602
0.08382941
0
0.03731852
0.02485865
0.07209206
0.002852418
9.19885e-25
1.457692e-22
8.263573e-20
3.274503e-19
2.526723e-19
0
2.21533e-35
0
0.1054555
0
0
2.961841e-20
0.07443434
0
0.01485515
0
0
0.03211471
0.08863426
0.05059944
0
3.175271e-09
5.128263e-09
1.008781e-09
1.518462e-09
2.690536e-09
1.835798e-09
1.837981e-09
0
8.08334e-05
8.486713e-05
4.771087e-21
9.715297e-06
0
7.574168e-06
6.31737e-10
8.90673e-10
4.425474e-10
6.351829e-10
9.723611e-10
1.138645e-09
1.063439e-09
9.67356e-12
0
6.615715e-12
5.037046e-10
2.169648e-11
1.331551e-11
1.280853e-11
7.355677e-25
3.920933e-08
7.066532e-08
9.059191e-10
0
1.126637e-08
8.058778e-08
0
3.399023e-13
2.268498e-32
2.081539e-14
0
2.383598e-12
1.759719e-29
0
0.0005570046
5.861008e-19
0.02097949
0.04942509
0.0008616094
0.0008252279
0.0003514339
1.902906e-25
6.747594e-05
0.01177718
0.004704175
0.0007004121
0.01940999
0.01508038
0.0001088197
2.189504e-05
0.0007714223
0.04277447
0.02813552
0.1415489
3.388856e-16
4.517903e-16
7.077434e-19
1.245685e-14
4.864266e-14
1.90793e-20
1.134249e-31
0.004885146
0.009887088
0.004153014
0
0.001689458
0.000618623
0.006665114
4.948767e-06
2.829286e-06
3.885377e-06
0.001042006
1.166679e-07
0
3.062776e-07
3.739198e-05
0.002386351
0
9.606466e-06
0
0
0
1.040033e-08
2.082981e-06
4.700507e-06
2.924234e-09
2.047419e-09
2.171547e-06
6.235731e-06
0.2434503
0.246829
0.2487079
0.247109
0.2434946
0.2498045
0.2579648
4.579263e-20
0
4.048206e-06
2.066852e-05
1.819038e-19
0
1.511769e-05
0.03518914
0.1935067
0.06489467
0.02521227
0.1492665
0.1858752
0.1748172
0.08844447
0.100003
0.08719366
0.09948923
0.08855263
0.09976521
0.08743051
0.2051166
0.1723352
0.2074444
0.1558844
0.1218474
0.1616496
0.170574
0
0
7.745921e-27
2.435778e-22
0.00230334
0
0
4.31252e-06
2.561734e-06
1.185341e-06
0
3.350844e-06
0
2.097056e-22
1.457249e-08
1.184547e-06
3.013884e-05
0.001215718
1.274186e-06
3.402225e-05
0.0001253888
0.0101904
0.001456203
0
0
0.0005192819
0.0003271082
7.794319e-21
0.2525175
0.2569714
0.2559283
0.2517906
0.2598383
0.2604438
0.2543924
0.09029925
0.08963535
0.09037503
0.09381253
0.09211364
0.09092546
0.09272196
0.02504943
0.0007977789
0.000453198
0.0009418963
0.001815305
0.0001865804
0.0002297208
5.180417e-18
2.097617e-19
2.292915e-23
5.107587e-17
1.300936e-18
3.540501e-17
3.90808e-16
6.260968e-05
7.231791e-07
3.020284e-06
0.07824782
0.07862729
0.06159453
0.07824782
0.2126099
0.1760345
0.1939618
0.2045446
0.2119609
0.2149585
0.2229069
0
0
0
0
0
3.192593e-18
0
0.1258277
0.1206
0.123807
0.118515
0.1158296
0.1189491
0.1159579
0.1263428
0.1238368
0.1273531
0.1185186
0.1168852
0.1185807
0.1163493
0.2495787
0.249593
0.2492548
0.2496256
0.243346
0.2207862
0.2449001
0.2417883
0.2425873
0.2473832
0.193875
0.2335427
0.2336468
0.2342557
0.09884573
0.09223767
0.1004509
0.1103848
0.09937847
0.0923368
0.1000469
2.200187e-23
1.135924e-22
0
3.3052e-22
3.549608e-21
5.453076e-20
6.724141e-21
0.08483148
0.08025136
0.08288991
0.08743631
0.08460478
0.08018073
0.08336652
0
0.000865124
0.002690059
0
0
0.04599037
0.1320366
0
0
0.001467411
0
0
0
0
2.053719e-17
1.114112e-17
0
1.904019e-17
3.955958e-20
4.492752e-18
1.414337e-17
0
0.01577771
0.02278144
0.0004722023
0.0007195645
0.01095722
0.04887297
1.199224e-09
2.248414e-09
1.482349e-09
1.053771e-09
1.277874e-09
2.714992e-09
1.807977e-09
4.880341e-05
0
2.405918e-07
0
0.02985892
3.252317e-05
0.0001606548
1.237042e-14
2.659015e-13
6.226885e-14
2.603492e-14
0
8.847143e-31
0
0.0003276735
0.01300797
0.01326696
0.001221949
0.0006962433
0.0006528712
0.0290644
3.525053e-11
5.925071e-12
0
1.169742e-10
3.829436e-11
1.639826e-11
0
0.0001407244
0.01493569
0.02192106
0
0.0001570764
0.1301615
0.1344683
1.864895e-23
2.744806e-08
1.522363e-23
1.317546e-05
0
2.724606e-23
0
0
3.79613e-15
3.264015e-13
6.668571e-13
7.623083e-14
1.592824e-13
0
0.08713397
0.08636684
0.08456611
0.08628627
0.08802026
0.08723324
0.08510754
1.941682e-15
7.73627e-15
3.106427e-17
1.483023e-15
9.510609e-10
5.389226e-27
7.223036e-10
0.08279389
0.08452086
0.09739684
0.09842684
0.08346569
0.08513137
0.09892085
3.842454e-19
7.028395e-15
6.387596e-19
7.581593e-10
9.663439e-27
1.492961e-09
0
0.02955501
0.001008781
0.005437129
0.05773932
0.008752884
0.004033237
0.005228314
0.1281548
0.1276941
0.1292168
0.1192217
0.1237082
0.1201726
0.1260295
7.421067e-06
3.10171e-05
4.264206e-06
1.853471e-05
0.03905002
0.09815427
0.07883742
0.08956471
0.0964073
0.09159901
0.09755907
0.09013862
0.09854759
0.09350049
0.08978591
0.08712284
0.07447798
0.08560018
0.09098011
0.0864129
0.07759248
0.05897104
0.2322359
0.1126656
0.1872335
0.2095691
0.1786526
0.1775445
0.03047242
1.124512e-05
0
3.84812e-06
0.009214788
2.19908e-05
0
0
5.674083e-07
4.406364e-07
0
3.639558e-06
1.809899e-05
1.673543e-05
0.09350819
0.09165203
0.05891731
0.08177641
0.09384139
0.09216176
0.05951342
1.203809e-17
2.061249e-37
1.899585e-18
9.518682e-19
0
0
0
2.515912e-08
0
0
2.851983e-09
0
1.425109e-27
3.300211e-10
2.09541e-07
0
0
0
0
0
2.724235e-11
0.1691244
0.2119959
0.2119251
0.141111
0.1512003
0.1427207
0.152354
1.192094e-07
2.951407e-08
9.152395e-08
1.422062e-07
1.197255e-07
9.473212e-07
0
3.069742e-07
1.110834e-08
4.894183e-07
9.158445e-10
7.005843e-08
0
2.497169e-07
1.838328e-06
3.634962e-06
9.330019e-07
1.991988e-06
1.430444e-06
2.464897e-06
7.813289e-07
0.08199385
0.1011806
0.08313382
0.1089847
0.08268976
0.1033924
0.0846798
1.229327e-07
3.752026e-06
9.401318e-08
1.01761e-07
2.507246e-07
4.598933e-06
7.734841e-08
0.09028511
0.02856873
0.05837508
0.1267832
0.1325624
0.130768
0.1239479
0.1385717
0.1343409
0.1404623
0.1409121
0.1321438
0.1420223
0.1345753
0.06138708
0.1048308
0.02929079
0.08146139
0.1075468
0.03204808
0.09206946
7.326939e-07
0
1.928712e-07
3.509796e-07
8.437776e-07
0
3.1226e-07
0.006983018
0.00275214
0.001034206
0
0.0006251008
0
0
0
0.0005481864
0
0
0
0
0.002945157
0.0001101839
0.0002693774
7.583037e-05
0.005145926
4.068985e-05
0.001817009
0.0002774557
0.002146785
1.043466e-07
0.0004347649
0.0002068415
0.00215851
5.038466e-06
6.724912e-05
1.239637e-06
0.0002692415
0
0
1.808617e-05
0.000391661
5.249434e-09
5.287693e-05
2.823757e-06
0.0008737026
0.000207827
0.0008411439
8.453913e-07
2.689103e-20
0.0002555232
2.455564e-06
5.416395e-05
3.931668e-05
2.950228e-05
0
2.3385e-05
0.04954481
0.1093474
0.09135857
0.1107033
0.1081651
0.07248156
0.07704668
0.0007132334
4.718106e-05
0.001115234
0.0002929401
0.0001716643
0.0001965339
5.249637e-05
0.0006071017
0.03145261
0.01011376
0
0.03668642
0
0.02950708
4.187193e-05
1.677466e-09
2.581216e-22
4.124053e-05
5.2053e-05
1.135867e-05
1.518481e-05
0.0004930569
6.2356e-21
2.093822e-05
1.5589e-21
4.794265e-05
7.807219e-05
0.0001654825
0.1110853
0.1571867
0.07778082
0.09670179
0.110692
0.1290686
0.003044679
0
4.950248e-19
4.39661e-20
1.839249e-19
2.97695e-20
0
2.704261e-38
0.005958782
0.0789959
0.1316869
0.1405727
0.132022
0.0976246
0.06414973
0.0003734563
0.0001064881
8.623153e-05
0.0001476822
2.875893e-05
7.340206e-05
0.0001097273
0.1615619
0.1570821
0.1658693
0.09661368
0.09597154
0.1010355
0.09812743
3.371253e-14
1.54323e-13
1.138536e-13
4.214894e-12
1.76353e-12
2.260517e-12
0
1.794674e-06
2.579503e-07
0
2.061956e-07
1.050353e-06
2.404076e-09
0
3.604625e-29
5.745738e-12
1.497829e-11
1.764357e-12
2.380914e-12
9.065699e-14
1.791065e-11
2.26446e-09
0
1.175224e-06
4.87156e-23
2.624767e-07
0
2.063321e-06
0.2424619
0.218529
0.2188971
0.2131852
0.2314601
0.209896
0.2130669
5.81585e-07
2.121479e-07
5.777156e-08
1.275871e-07
5.57274e-07
2.613651e-07
2.046123e-07
3.428156e-15
7.228874e-19
1.041875e-43
1.355007e-17
0
1.655656e-16
0
0.07957096
0.04369136
0.112853
0.1285672
0.1012224
0.02646181
0
0.0001366881
0.00164732
0
4.530553e-20
0.0001808774
1.697469e-07
6.2356e-21
0.03213211
0
0.0003626848
0.01209924
0.02325683
1.815727e-19
0.0001475084
0.2475645
0.2367752
0.2328297
0.2440749
0.256794
0.2230829
0.2385325
0.0213696
0.0415302
0.006595853
0
0.02484707
0.02965807
0.0003482174
3.115876e-07
1.570001e-07
7.903346e-07
7.611817e-25
0
4.785404e-07
1.170936e-06
0.1826555
0.1558803
0.1754294
0.1942018
0.09873595
0.1443489
0.1254744
0.1226262
0.05388104
0
0
0
0
0
1.383058e-05
0.0009621427
0
0
0
0.0007908963
9.014424e-05
0
1.97296e-25
1.096574e-08
1.010131e-10
5.51956e-09
0
3.934453e-08
0.2387424
0.2394325
0.236786
0.2345395
0.1867456
0.2266852
0.2285811
0.0001659975
0.000317385
1.450924e-05
0.004495596
0.0005096379
1.694044e-06
9.088283e-06
2.939932e-09
1.028282e-09
0
8.553902e-10
5.129902e-09
2.149002e-09
2.888073e-10
0
0
4.656185e-06
6.283913e-08
0
0.0009992371
0.0002433978
0
0.001037516
0.05598769
7.731199e-19
0
0.03793785
0.05263185
5.747485e-20
1.981417e-34
5.362877e-21
5.234848e-18
0
1.70778e-17
4.644578e-17
0.0002691418
0.0001820478
0
5.066415e-21
0.0003706839
0.0002939465
3.87289e-21
2.854431e-25
0
1.628505e-08
3.182482e-09
6.66034e-25
0
1.553406e-08
0.0415302
0.01930059
0.0006007468
0.02124298
0.01973603
0.01465547
0
0.2383871
0.242946
0.2421614
0.2290764
0.233567
0.2363573
0.2369426
0.0002144389
0.0007147789
0.003121867
0
0.001936369
0.000109594
0.000259613
1.755983e-05
0
4.01792e-06
1.182844e-05
5.073652e-05
0.0001007108
1.444404e-06
0.1153091
0.1146064
0.1048637
0.1272458
0.05987094
0.1178889
0.1222441
0.00131539
0
0
0.0005009167
0.0003395356
0.0002044508
0.0003656134
2.182359e-20
2.49419e-20
5.422979e-05
0.06659616
0.1242847
0.006370915
0.1025807
5.848104e-06
1.15816e-22
0
0.003910646
0.0006910105
8.948022e-08
1.03733e-07
0.00952844
1.617353e-20
0
0
0
0.02090094
1.088526e-05
0
8.148975e-06
1.492536e-06
1.169601e-05
0
0
0
4.115336e-06
4.676523e-21
4.012179e-06
0
5.100312e-06
0.0006027798
0.08736092
3.019186e-12
0
1.931987e-11
6.972019e-13
1.240457e-13
1.175781e-13
2.806868e-12
1.644152e-22
5.209365e-07
0
0.0001578415
4.079934e-22
0
0
0.004414366
0.005113139
4.071684e-20
4.133499e-06
0.001319371
0.00294729
0
3.432397e-09
9.408703e-10
6.519462e-09
5.777216e-08
8.452015e-10
1.027574e-09
4.891468e-09
8.267173e-08
1.489761e-07
5.800563e-07
0
1.364996e-07
1.07512e-07
9.214337e-07
0.001863904
0.01383645
0.008124598
1.003592e-36
0.0002516184
1.041912e-20
0
0.2258187
0.2261159
0.2350319
0.1932106
0.2203984
0.2142419
0.1910773
0.07306804
0.05056282
0.05448212
0.1356958
0.1367432
0.136927
0.1330383
1.480988e-12
0
6.938099e-14
0
1.870607e-11
3.523794e-12
2.498949e-14
0
1.067046e-15
2.521352e-15
1.96319e-14
2.47765e-14
7.61007e-15
2.555255e-15
5.329564e-05
1.805479e-05
0.0001466481
2.796454e-08
2.437557e-05
3.635042e-07
0.000105708
0.07182578
0.04226222
0.02049883
0
0
0
0
3.608493e-13
3.240484e-18
0
1.266866e-16
1.580182e-11
7.426699e-18
4.484727e-11
0.1075022
0.01266624
1.596232e-18
0
0.06381412
0.006260888
0.01265315
0.2489452
0.2633577
0.2290593
0.2557711
0.2442707
0.2626786
0.2214571
0.003786336
7.98148e-19
0.0001027216
0.01521134
0.002421278
0.004121495
0
1.011713e-05
0.0001191855
4.641524e-06
1.13002e-05
7.259999e-05
1.999992e-05
0.0002392694
0.07036124
0.03923601
0.03498579
0.07129751
0.07022619
0.04013989
0.03376412
0.04977395
0.06750717
0.09354115
0.1153737
0.006071092
0.1147424
0.120988
0.0004659497
1.989355e-05
0
0.002653245
3.481732e-05
1.217891e-22
0
1.454038e-14
1.622543e-17
2.507881e-12
3.13907e-14
9.677171e-15
6.287368e-15
1.162213e-12
9.976868e-20
0.00478821
0.000978444
0.001511562
0
0.004297854
0.00159373
1.610105e-05
1.167529e-08
0.0007028909
0.0004453373
2.172968e-05
0
0.0006339164
0.02301478
0.04357806
0.07843816
0.04778382
0.07894519
0.07866163
0.05781319
0.1645534
0.1645578
0.1662094
0.09512761
0.09270862
0.09922848
0.09727997
0.03331512
0.08234488
0.1213086
0.1105018
0.06937704
0.0860948
0.06866737
0.1676206
0.1651369
0.160261
0.1709804
0.1268655
0.183031
0.1872913
5.047051e-05
0.0001096459
0.0001240297
8.419261e-06
0.003818009
1.487631e-05
0.02571293
4.184121e-27
0
2.576018e-17
1.442364e-09
3.137243e-09
1.010856e-12
1.566416e-08
5.656048e-16
0
7.017545e-18
7.038167e-13
6.197537e-29
0
4.296894e-15
5.949607e-10
0
0
7.023692e-07
1.904506e-05
3.806211e-06
5.728799e-07
1.652352e-19
0.006442086
0
0.001520749
0
0.01724572
0.004210512
2.997494e-07
0
4.041716e-07
7.611817e-25
2.454186e-07
1.070412e-25
1.071075e-09
1.948625e-22
1.248338e-21
2.666944e-06
0.0002667857
0
0
1.594002e-06
2.592734e-05
6.085416e-07
1.756641e-06
2.736728e-06
2.668743e-05
5.382006e-07
5.795764e-07
0.1193863
0.01777407
0.03998379
0.0584934
0.1153091
2.492712e-19
0.01612571
0.04127731
0.03113636
0.0285971
0.09430311
0.08374553
0.07639779
0.08336994
2.81579e-06
0.0003116963
0
0.0007115613
0.0008700393
0
0.0004564833
0.009007629
0.01218386
0.02402064
0.01614272
0.006497147
0.004829328
0.0001347744
2.59752e-05
1.534576e-07
3.027783e-07
5.731382e-06
2.852385e-05
1.269391e-08
1.153666e-24
0.04516528
0.02612839
0.03560962
0.08707935
0.0648476
0.05810389
0.1282989
0.07223121
0.07732537
0.07500577
0.07716443
0.07066304
0.07655533
0.07436295
0.1885427
0.1876915
0.1881095
0.08686858
0.09281041
0.08514834
0.09342436
0
1.037777e-14
4.873306e-22
1.295583e-15
1.342247e-16
2.442038e-14
1.252824e-15
0.03950205
0.02921464
0.02432947
0.07271111
0.09080781
0.0694704
0.07566315
0.211605
0.2339608
0.2336961
0.1986552
0.1379534
0.2042058
0.2044798
0.09412372
0.06475567
0.1342256
0.0006595237
0.05666419
1.009999e-18
0.06545199
0
9.080963e-15
5.402011e-16
1.417811e-33
4.031888e-17
1.4763e-17
1.802532e-21
1.229218e-08
1.450349e-32
3.484197e-15
0
6.802382e-10
0
5.037094e-25
0.00610639
0.0001600314
0
0.04446174
1.029324e-06
6.580986e-08
8.164601e-24
0.01618503
0.007719193
0.00681211
0.1107241
0
0.0234444
0.06055283
2.757514e-07
1.845103e-07
2.021192e-24
0
1.238654e-08
1.689556e-25
1.372247e-09
0
0
2.185747e-22
4.225407e-41
3.073877e-24
1.029363e-23
1.43476e-21
6.746061e-07
2.844016e-07
4.874175e-08
5.418552e-06
3.311769e-07
2.354977e-05
2.96216e-07
0
0.002734541
0.1037977
0.1337234