/*--------------------------------*- C++ -*----------------------------------*\
| =========                 |                                                 |
| \\      /  F ield         | OpenFOAM: The Open Source CFD Toolbox           |
|  \\    /   O peration     | Version:  1912                                  |
|   \\  /    A nd           | Website:  www.openfoam.com                      |
|    \\/     M anipulation  |                                                 |
\*---------------------------------------------------------------------------*/
FoamFile
{
    version     2.0;
    format      ascii;
    class       volScalarField;
    location    "40000/fluid";
    object      alphat.gas;
}
// * * * * * * * * * * * * * * * * * * * * * * * * * * * * * * * * * * * * * //

dimensions      [1 -1 -1 0 0 0 0];


internalField   nonuniform List<scalar> 
4960
(
1.544969e-25
0.0003515735
1.148598e-25
6.79942e-24
0.03863462
0.0009065467
8.486478e-25
0.004742367
0.0005208371
1.044668e-26
0.0002136899
0.0234131
2.359476e-24
0.001127141
0.008194545
0.003804079
0.03613443
2.916252e-25
3.640908e-26
0.03144561
0.006913596
1.499272e-25
9.440417e-27
2.007932e-11
0.03307166
2.715442e-26
0.03026514
1.079066e-23
0.03342632
0.004782351
0.006317629
0.01338648
0.03482238
0.01324032
0.01072797
1.078645e-26
1.776301e-19
0.0004162074
0.00462284
2.703665e-06
0.0003811197
0.0001742602
5.889975e-25
0.004670748
0.01009177
0.0005819149
1.542427e-26
0.004763899
2.244442e-26
0.008073538
0.017335
1.000291e-19
0.001012725
0.0004705898
5.306302e-26
0.001936271
3.767795e-26
4.088285e-26
1.232769e-07
1.241958e-25
0.005418614
5.199862e-23
1.395765e-26
1.13923e-26
0.01755897
0.01076061
0.01119768
2.541233e-23
0.02488008
1.966308e-23
2.885827e-26
6.067957e-07
1.058252e-25
0.002833962
0.002936001
0.004670238
5.821549e-23
1.784472e-26
0.0002619957
0.01097131
3.494972e-25
2.298013e-26
0.003148721
1.719214e-26
0.001228342
4.257063e-06
0.001964333
0.003348119
0.01027628
0.003076363
0.005260358
0.00888798
3.571364e-26
1.081205e-26
9.128014e-07
0.02230682
0.00354271
1.381608e-26
0.002275053
3.532219e-05
0.002277018
0.005744897
1.759015e-23
0.001898468
0.0001301827
1.287001e-26
2.31258e-25
4.352027e-24
5.081163e-25
5.527038e-06
0.0005385559
9.311769e-05
0.01776339
0.001085444
0.004717157
2.514542e-26
0.002163065
0.001965678
0.001170463
1.440953e-05
7.800482e-26
4.609282e-05
3.035803e-23
0.003356586
0.00702389
3.994186e-26
0.02580825
0.002490163
7.143403e-23
0.000443527
1.397308e-22
1.359217e-26
1.292585e-26
9.82824e-27
0.006432891
0.00465449
0.01778155
9.774602e-27
0.001688421
0.003030919
0.001341162
5.270578e-14
0.0217879
0.004754246
0.01026531
0.01826708
0.01159213
0.004691844
0.0003460514
0.0002996171
0.001953266
0.02357061
0.01618479
0.004888928
3.309944e-26
0.02293212
0.01935464
0.01979515
0.01911393
0.02038531
0.02094024
0.02585241
0.01647926
2.614594e-26
0.016858
0.003669819
0.004092629
1.795167e-26
0.003786773
3.720348e-25
0.01158972
1.782315e-26
0.02408347
3.616792e-26
0.01886777
2.681334e-06
2.356343e-26
0.01698249
2.356956e-07
0.01824967
2.602515e-07
0.005298663
0.02044475
0.01956215
0.01390612
0.01469909
0.02192702
0.005591471
3.098513e-05
0.012502
1.44928e-07
1.060352e-24
3.646741e-25
0.02119047
5.48452e-25
2.232402e-25
5.594255e-06
0.01884468
1.960525e-08
0.01545882
0.020841
0.008511482
2.042299e-24
0.001959636
0.00237053
0.001544042
7.539066e-05
4.767365e-05
2.419583e-05
0.00316797
0.009102915
0.0002058373
0.005138519
3.960307e-05
1.414381e-05
0.06742641
3.012254e-26
0.006833976
0.0003133753
0.01901812
1.147252e-24
1.062482e-26
5.486657e-26
0.0001755113
0.02030253
1.417265e-23
1.01014e-26
0.01693457
0.0001642494
0.007479084
0.01971727
0.002321142
2.206322e-11
0.01804693
0.003230203
0.001186875
4.202616e-24
0.02223977
0.001418656
1.421697e-26
0.002157834
0.02115899
5.780718e-26
0.0004137791
1.426735e-26
0.0009548672
0.01910071
0.0006791958
6.987419e-05
0.01428313
0.006708554
0.002713035
0.002367586
0.001908957
0.000211575
0.01940458
1.402667e-24
9.63661e-05
0.0003173673
4.383904e-26
1.301106e-26
0.00226622
0.01581762
0.008731422
1.20711e-26
3.430799e-25
2.233355e-05
0.0189933
1.684668e-07
0.03029383
0.02297541
0.00528436
7.860933e-05
0.01184729
0.01728073
0.00184146
1.782282e-25
0.0004694791
0.0001745974
0.005855646
0.01940396
0.005702309
0.01723822
0.004491743
0.001862142
6.109184e-26
7.059756e-05
0.003770812
5.957956e-08
0.0002283957
4.881375e-07
0.08086649
1.122103e-07
0.0007076881
0.01058527
2.528061e-07
1.154978e-30
0.01632419
0.01778265
7.808744e-26
6.253653e-30
0.01802684
0.00587776
2.368745e-26
3.480761e-07
0.01954341
0.0120953
6.300854e-19
9.309755e-27
2.580981e-06
0.006972415
0.002555958
0.001885875
4.67797e-09
0.002901685
0.0004179133
1.12642e-25
0.0007171636
0.006543081
1.993299e-29
0.0005441826
1.920987e-29
4.483356e-30
4.443651e-14
1.862448e-28
9.528212e-30
1.471605e-17
6.404587e-30
4.157264e-30
1.89469e-29
1.378215e-26
9.080994e-26
5.275098e-06
1.50606e-26
3.725051e-07
1.144419e-25
3.871755e-07
8.483939e-26
9.788922e-26
0.002227186
0.01184509
2.307099e-30
2.361361e-25
9.076596e-07
0.02400327
0.08803723
0.02335222
4.161995e-25
3.72345e-25
7.846509e-25
2.125038e-06
0.01523273
1.532679e-23
2.086801e-10
1.156645e-07
2.433262e-05
0.0003800668
0.004591565
1.867403e-26
0.008737098
5.571259e-05
7.26622e-07
0.003146443
0.001306609
0.02271968
0.0111511
0.003914849
0.006201297
0.04297382
2.010198e-26
0.005790677
0.003041446
6.410946e-07
2.157184e-26
0.001069128
0.005168396
0.01498254
0.003445123
0.02389157
0.01924498
1.520327e-25
0.02496852
6.085608e-24
0.00442145
0.008540428
1.051237e-06
1.534993e-06
0.0003999031
1.097607e-05
0.0004259868
5.786863e-25
0.004815198
0.0002596605
0.002865192
0.01868182
3.583207e-25
0.003855046
0.0001140961
0.005015739
9.334176e-27
0.002733585
3.772513e-06
8.648607e-26
0.003822446
0.004739483
0.006759131
9.499162e-27
0.01543326
0.0183451
0.01689904
0.009341059
0.01776398
2.438885e-16
0.02425643
9.006594e-27
0.01167104
0.01941184
2.501408e-26
8.336105e-25
1.136832e-07
4.337623e-26
0.01700117
5.8531e-05
0.0005090757
1.609571e-24
0.001085026
0.006935722
3.066084e-26
0.1274773
0.02449675
8.720822e-07
0.003973951
2.005029e-07
1.264246e-25
3.611202e-05
0.003183404
0.01969681
2.389287e-24
4.708804e-26
0.006062197
9.632486e-27
2.833247e-25
0.002599808
0.02261833
0.02943274
0.02301869
5.342586e-26
0.005060733
8.241622e-05
0.00186477
9.227715e-05
1.377903e-26
2.781375e-06
0.02423456
0.0001286301
9.706215e-08
0.02080288
7.790447e-27
1.219508e-26
1.829137e-26
0.02967302
1.374678e-26
0.02249418
1.053927e-05
0.01863615
1.9329e-24
1.657256e-25
5.522493e-05
0.02132615
0.01372039
0.04715463
0.00204976
3.118382e-24
4.240966e-26
0.005554499
0.004074167
0.00393478
2.16924e-24
1.497071e-07
1.446011e-26
0.007792959
7.673034e-25
6.772317e-26
2.831793e-24
1.020577e-25
0.005632962
0.004001801
1.047454e-05
0.02353625
9.041997e-08
7.138303e-27
1.610986e-26
0.0063436
2.183151e-26
2.404579e-25
0.01119043
5.448079e-06
3.071217e-26
4.398414e-05
0.01952782
3.79293e-26
0.008524297
0.02185074
0.005404806
0.005614503
3.031491e-26
0.003439159
1.58631e-06
0.008416384
1.548507e-26
0.005641327
2.225006e-26
0.007750548
9.878185e-26
0.008291476
1.715617e-24
0.01646643
0.006455084
0.007379871
6.722121e-26
6.209743e-26
0.01483037
1.792906e-26
0.01951414
0.00901638
0.02641869
2.051143e-26
0.02816846
1.287912e-25
1.345797e-25
0.0002461572
1.974478e-25
2.645332e-26
0.02213115
0.01823569
4.991003e-26
0.003874837
0.0003765152
0.002810743
1.57999e-26
9.455894e-26
0.04830548
0.02150818
6.540754e-26
0.03917883
0.007214709
0.01897121
0.007510735
0.0003281686
0.01925952
0.02736143
0.003867062
0.0206964
8.889294e-08
1.113712e-26
1.565169e-24
0.0007811144
0.005339697
0.003884916
0.003190806
9.023578e-27
4.946239e-08
0.003068684
0.02536576
0.01196277
0.01401944
1.765572e-26
7.825797e-25
5.598051e-25
1.473258e-24
2.68485e-05
0.0293126
0.0150534
3.284984e-26
0.006774682
3.91582e-24
2.266839e-25
0.01265638
1.096088e-25
0.01638335
0.02050148
2.94259e-14
1.262046e-25
4.404322e-07
0.02173929
2.32791e-06
1.016967e-26
0.01619962
1.71538e-26
8.21407e-05
2.931107e-05
8.846183e-05
0.004543801
3.033429e-26
0.01106238
0.02361294
0.04146567
0.01399099
0.01730204
2.247389e-26
1.694664e-07
1.063312e-24
2.046174e-06
0.005492035
9.402056e-27
1.40423e-08
6.979773e-25
0.01582356
3.585289e-24
0.003846071
0.005729941
0.0164535
0.01724649
2.746253e-06
0.005053467
0.01612191
0.002467857
8.810145e-26
4.988284e-26
9.265125e-27
1.897561e-25
1.546958e-25
1.90444e-25
1.533074e-25
1.919843e-25
1.534337e-25
1.922324e-25
8.724016e-05
0.0001364187
0.0002548968
0.0003687716
0.000109417
0.0001459251
0.000306117
1.015701e-25
7.213287e-26
1.598891e-25
1.202119e-25
1.053454e-25
7.314072e-26
1.760853e-25
8.551694e-24
6.801276e-24
8.538154e-24
8.320865e-24
6.669745e-24
8.314441e-24
6.68603e-24
0.005958805
0.04078567
0.03434732
0.02746328
0.03831002
0.03549702
0.02912821
0.000317682
0.001176722
0.0002551418
0.001284758
0.0003724452
0.0009423286
0.0003191254
5.397595e-25
1.424667e-25
2.043617e-21
3.878215e-24
6.192097e-25
1.623097e-25
2.052545e-24
0.008885736
0.003306636
0.03824361
0.006282412
0.006291575
0.007523476
0.003924565
0.0002673324
0.0006460103
0.0001959522
0.0002740456
0.0001450256
0.0003822908
8.726801e-05
1.334916e-26
1.010345e-26
1.332184e-26
1.044559e-26
1.33485e-26
1.010294e-26
1.332065e-26
0.0001547006
0.0002645958
7.649918e-05
0.0002796773
0.000175221
0.0003482793
9.893645e-05
0.02355252
0.02317601
0.02397232
0.02291515
0.0232057
0.02283573
0.02351368
2.363169e-24
2.556946e-24
2.678778e-24
2.236444e-24
2.554577e-24
2.686861e-24
2.237927e-24
0.0009280077
0.003669898
0.003644735
0.001069881
0.0008281091
0.002923666
0.003278493
0.00927147
0.008892352
0.007704845
0.009804168
0.05287846
0.008627019
0.0162937
0.003007993
0.004572545
0.005297794
0.01316861
0.005205147
0.0119151
0.004184578
0.00396674
0.03046402
0.03943905
0.00465245
0.002778547
0.004130784
0.00447416
2.408664e-25
2.598544e-25
3.107349e-25
2.917622e-25
2.409966e-25
2.598569e-25
3.104806e-25
4.092535e-26
4.377471e-26
3.42117e-26
3.642834e-26
4.095179e-26
4.379399e-26
3.427146e-26
0.004251495
0.005076268
0.003646108
0.04192073
0.004658298
0.05522267
0.005279321
0.02650783
0.004092027
0.00433431
0.008934614
0.02538089
0.003267223
0.00528663
1.622786e-25
1.701143e-25
1.830479e-25
1.495696e-25
1.61885e-25
1.695768e-25
1.826046e-25
1.061881e-26
9.383548e-27
1.070819e-26
9.440413e-27
1.061881e-26
9.383548e-27
1.070818e-26
5.151885e-25
4.610275e-25
4.764997e-11
3.866552e-25
3.869605e-23
4.782882e-25
5.715185e-17
0.02263119
0.02888609
0.02567302
0.03639046
0.03668642
0.0342412
0.037502
2.391285e-26
2.601703e-26
2.307626e-26
2.558715e-26
2.403598e-26
2.604721e-26
2.312032e-26
0.003962359
0.003684594
0.006318507
0.005126232
0.03480023
0.006455364
0.009357294
1.371918e-23
1.077798e-23
1.373878e-23
1.04313e-23
1.300675e-23
1.034701e-23
1.278157e-23
0.02146844
0.03067839
0.02617385
0.003746939
0.03950639
0.004161633
0.03246308
0.007046816
0.008893725
0.006319417
0.008346756
0.00232616
0.01653569
0.01026908
0.004063575
0.007584724
0.03986618
0.009384895
0.009623858
0.009536299
0.00802795
0.0135828
0.01286403
0.01147759
0.01366708
0.01260587
0.01433227
0.01041983
0.03419666
0.006832748
0.00614923
0.003402955
0.003576985
0.005514606
0.005281457
0.003470342
0.004354189
0.01477965
0.02183496
0.003335742
0.004118841
0.02361885
0.001506142
0.002410898
0.00251435
0.002612869
0.003840046
0.01029806
0.003533549
1.083941e-26
9.657558e-27
9.599878e-27
1.078718e-26
1.083941e-26
9.658067e-27
9.601038e-27
1.065154e-23
4.476724e-23
1.876794e-19
2.20851e-20
1.064526e-23
1.969973e-21
1.993012e-24
0.0009976346
0.00107902
0.0008143183
0.0005884656
0.0009214956
0.0006135848
0.001913131
0.01026936
0.003116775
0.00257281
0.002289455
0.002620318
0.01795486
0.004383099
2.254765e-09
4.375787e-07
7.812542e-07
8.829419e-07
3.661583e-09
6.141431e-08
3.397892e-07
9.704726e-05
0.0001852354
0.0002533406
0.0003780544
8.475388e-05
0.0001762298
0.00022891
0.000184073
3.750052e-05
5.013742e-05
0.0002188409
0.0002122728
4.208128e-05
5.692517e-05
5.118952e-25
4.962148e-25
6.006322e-25
5.894083e-25
5.113152e-25
4.965229e-25
5.996072e-25
0.01343178
0.006798201
0.002830715
0.01158181
0.01250955
0.01541782
0.002526046
0.006667287
0.01052084
0.009548064
0.01056966
0.007751837
0.009458727
0.007836163
0.001148117
0.001430662
0.001255736
0.0008910161
0.003300589
0.001109585
0.001201479
1.752587e-26
1.721874e-26
1.552799e-26
1.540153e-26
1.752638e-26
1.719569e-26
1.553075e-26
0.006108913
0.008152204
0.007886575
0.002356357
0.003499593
0.005222614
0.004588623
2.154324e-26
1.979172e-26
1.929683e-26
2.246692e-26
2.15469e-26
1.98311e-26
1.928318e-26
0.006863957
0.007837897
0.008004646
0.009011298
0.006872018
0.007631524
0.008348205
0.01637209
0.02038504
0.01382285
0.01715766
0.02201155
0.020458
0.01575907
7.486783e-25
3.322971e-25
2.692415e-25
9.012882e-25
8.873002e-18
3.386221e-25
3.755009e-22
0.001813676
0.0013722
0.002527655
0.0007225554
0.001793148
0.0007437118
0.0008195872
0.0001948732
0.0003011985
0.0006099001
0.0004647658
0.0001974192
0.0002971149
0.0005891
4.668189e-26
5.001036e-26
5.751119e-26
5.308658e-26
4.670511e-26
5.003166e-26
5.750443e-26
0.002791935
0.00156979
0.001733242
0.003281891
0.002471666
0.001314136
0.001829978
4.831239e-26
4.227623e-26
4.319297e-26
3.764821e-26
4.825635e-26
4.225722e-26
4.312403e-26
7.59486e-26
5.384148e-26
3.677805e-26
4.091831e-26
7.606932e-26
5.390225e-26
3.680299e-26
1.307431e-07
1.2326e-07
1.306666e-07
8.719646e-27
8.661114e-27
8.727905e-27
8.664978e-27
5.422461e-26
4.76961e-26
9.896167e-26
1.242527e-25
5.425861e-26
4.780462e-26
9.925504e-26
0.00550343
0.005409121
0.003894248
0.005005242
0.00571031
0.005374299
0.004083694
3.746544e-23
1.572971e-23
2.502981e-23
5.059099e-23
3.654052e-23
1.535099e-23
2.558393e-23
1.416191e-26
1.220764e-26
1.230485e-26
1.395765e-26
1.416191e-26
1.220764e-26
1.230486e-26
1.401694e-26
1.13923e-26
1.401694e-26
1.439299e-26
1.212459e-26
1.439299e-26
1.212459e-26
0.01594546
0.01729483
0.01572595
0.02070425
0.02117468
0.01931743
0.01946533
0.01589048
0.01599618
0.0119437
0.005604784
0.003200526
0.01477751
0.01558076
0.01175607
0.06618747
0.007954787
0.01171656
0.01189208
0.01128268
0.008710185
1.963562e-23
5.180076e-25
6.682306e-25
4.429502e-24
2.869959e-24
4.600911e-25
8.611188e-12
0.02500809
0.02513293
0.02471054
0.02403608
0.02473165
0.02460925
0.02420571
2.773981e-23
5.627373e-23
7.011107e-23
2.344664e-23
2.574513e-23
4.767304e-23
1.69018e-22
2.54942e-26
2.419684e-26
2.696474e-26
2.886678e-26
2.550319e-26
2.423691e-26
2.697982e-26
1.175861e-05
4.560513e-06
3.150206e-06
4.648349e-07
6.699913e-06
2.646935e-06
2.186408e-06
1.486298e-25
6.81085e-26
9.780688e-26
1.056024e-25
1.499476e-25
6.80885e-26
9.801041e-26
0.003586518
0.005789465
0.002521019
0.001533053
0.002812717
0.002579834
0.001722523
0.001947043
0.002623531
0.01198747
0.009068765
0.004149729
0.01397481
0.01209467
0.02221623
0.007972437
0.0260172
0.00517853
0.004267368
0.005005168
0.004791038
8.6309e-23
5.759669e-23
8.465327e-23
6.794296e-23
4.901402e-23
6.55171e-23
4.833335e-23
1.787598e-26
1.562282e-26
1.571035e-26
1.791348e-26
1.789759e-26
1.571389e-26
1.571094e-26
0.0001514525
8.087238e-05
0.0004189921
0.0003156992
0.0001814211
9.684789e-05
0.0004594781
0.01448256
0.01013442
0.01114335
0.009559459
0.01276504
0.01096325
0.01125285
4.363077e-25
3.685305e-25
4.199371e-25
3.496789e-25
4.358103e-25
3.681505e-25
4.201721e-25
3.386499e-26
2.912838e-26
1.157082e-20
2.53315e-26
3.330619e-26
2.854224e-26
3.762335e-20
0.005034365
0.005793156
0.003727229
0.004080348
0.02822144
0.03110858
0.005422509
2.117684e-26
1.719239e-26
2.117404e-26
2.112901e-26
1.750543e-26
2.112918e-26
1.75054e-26
0.0006003558
0.0005252119
0.001074598
0.00105935
0.000770914
0.0005110687
0.001177911
4.729198e-07
1.228383e-06
7.73238e-06
6.156423e-06
6.598588e-07
1.492329e-06
1.00257e-05
0.007010076
0.001861076
0.004309078
0.002243066
0.010221
0.002188591
0.01926226
0.002159839
0.001934567
0.006207687
0.007480707
0.006729298
0.008098942
0.01364383
0.01326606
0.01019814
0.007865474
0.01258146
0.01752869
0.01607193
0.01104916
0.002964551
0.005478694
0.009169639
0.00338173
0.003110045
0.006568892
0.01003369
0.003202737
0.007846816
0.005259603
0.002215996
0.002036348
0.001815294
0.003664412
0.005146835
0.002448455
0.00997774
0.002209011
0.005746345
0.006652467
0.01108672
3.496079e-26
3.116999e-26
3.007415e-26
3.504818e-26
3.496527e-26
3.015938e-26
3.008046e-26
1.056459e-26
9.793018e-27
9.653105e-27
1.08137e-26
1.056416e-26
9.796117e-27
9.655974e-27
6.50037e-06
4.496951e-06
6.586469e-07
9.937228e-07
7.081658e-06
4.65314e-06
6.717399e-07
0.02278611
0.0223614
0.0228055
0.02208874
0.02246441
0.02207723
0.022526
0.00458844
0.01270375
0.00166629
0.003423704
0.004452007
0.01200248
0.001692564
1.380823e-26
1.213068e-26
1.216293e-26
1.381608e-26
1.380823e-26
1.213068e-26
1.216293e-26
0.004038357
0.002665203
0.001887483
0.001347888
0.004443176
0.004127893
0.001666437
2.774281e-05
0.0001397571
0.0001249634
3.543486e-05
3.05163e-05
0.0001459728
0.0001365499
0.001408788
0.002609013
0.003806708
0.003582737
0.002561145
0.004585399
0.006226072
0.007576674
0.007867297
0.009815815
0.006512798
0.00762474
0.01040745
0.01099728
2.292244e-23
1.759837e-23
2.293428e-23
2.064857e-23
1.617044e-23
2.028627e-23
1.575901e-23
0.001483913
0.00238241
0.0045085
0.003991709
0.001417951
0.001318606
0.001838063
7.311803e-05
4.704255e-05
9.649187e-05
0.0001832511
0.0001085328
6.374905e-05
0.0001248477
1.333786e-26
1.209045e-26
1.167236e-26
1.286779e-26
1.333946e-26
1.208966e-26
1.166462e-26
2.816319e-25
2.317845e-25
2.830019e-25
2.832154e-25
2.33097e-25
2.834871e-25
2.333508e-25
5.424881e-24
4.356421e-24
5.429546e-24
4.430628e-24
5.350569e-24
4.439668e-24
5.367932e-24
6.184901e-25
5.094178e-25
6.221555e-25
5.969421e-25
4.985168e-25
5.976672e-25
4.991214e-25
1.171236e-05
3.433564e-05
5.990179e-05
8.067343e-06
1.468396e-05
4.600119e-05
6.763114e-05
0.001053828
0.0004058285
0.0007300214
0.000898827
0.001560467
0.0006493479
0.001321725
0.0002028077
8.148672e-05
0.0001665828
6.332075e-05
0.0001534039
3.884415e-05
9.215984e-05
0.002704793
0.02258245
0.02335029
0.003608897
0.002006816
0.02843469
0.003589327
0.0007357025
0.001322119
0.0007148177
0.002428407
0.0009642051
0.0009355846
0.0006659878
0.005748002
0.01249906
0.006513908
0.001726158
0.01018083
0.002025866
0.002541921
2.514708e-26
5.323586e-26
9.896481e-26
2.363901e-26
5.325397e-26
9.903649e-26
2.363984e-26
0.00101013
0.0006894537
0.001353303
0.002452661
0.00104036
0.001067406
0.001224239
0.001686195
0.001422445
0.0009490266
0.003074367
0.003682958
0.001362991
0.001345695
0.002132327
0.001968892
0.0009878482
0.001921987
0.003492637
0.002932538
0.001598496
5.913961e-06
3.165142e-05
6.60003e-05
1.758468e-05
8.616949e-06
3.727901e-05
7.463011e-05
6.878031e-26
6.151836e-26
6.990267e-26
7.785279e-26
6.880215e-26
6.13793e-26
6.968882e-26
0.0001127061
2.220333e-05
6.591772e-05
2.084826e-05
5.692115e-05
1.075481e-05
3.347874e-05
4.133348e-23
3.032218e-23
4.113811e-23
2.7357e-23
3.61753e-23
2.708419e-23
3.605215e-23
0.003434335
0.005391031
0.00533005
0.005540157
0.005128402
0.004788513
0.006562155
0.01041289
0.01820358
0.006025418
0.003495147
0.002811019
0.004546042
0.004373066
4.918828e-26
4.005197e-26
4.939521e-26
3.852373e-26
4.678493e-26
3.852737e-26
4.679978e-26
0.00364023
0.03883206
0.01458035
0.02500182
0.003313537
0.03915663
0.008833735
0.005549751
0.002692189
0.003066239
0.01995714
0.01189267
0.005102037
0.002291986
4.539843e-23
3.727926e-23
4.36321e-23
6.688747e-23
4.469054e-23
3.768731e-23
4.331297e-23
0.0003588145
0.000819277
0.0009315304
0.0003341617
0.0002235341
0.0005807916
0.0008341917
7.835261e-24
1.348555e-22
8.656202e-24
9.889974e-23
2.204593e-23
9.277554e-23
2.318054e-23
1.369274e-26
1.221191e-26
1.226781e-26
1.357134e-26
1.369032e-26
1.221377e-26
1.226582e-26
1.266525e-26
1.192058e-26
1.156882e-26
1.296917e-26
1.282939e-26
1.202334e-26
5.343976e-17
1.095306e-26
1.097519e-26
9.845769e-27
9.831944e-27
1.09573e-26
1.097662e-26
9.8525e-27
0.00439918
0.006057098
0.003149564
0.007094676
0.01173885
0.006165303
0.01046704
0.003007996
0.004336154
0.00654946
0.00229189
0.004521029
0.005656894
0.00646515
0.01518531
0.02080432
0.02271075
0.02383144
0.02218956
0.03069567
0.02755831
1.095847e-26
1.089606e-26
9.720819e-27
9.785916e-27
1.094272e-26
1.089328e-26
9.719699e-27
0.004236308
0.007485469
0.004588692
0.002741016
0.001541132
0.00177312
0.003730823
0.001868524
0.003257135
0.004267644
0.004791208
0.002594892
0.004345504
0.00622027
0.0005692222
0.001110671
0.001320649
0.001743982
0.0007343123
0.001302591
0.003642299
1.411444e-25
8.974931e-26
4.508469e-09
1.752942e-12
1.341422e-22
9.988375e-26
3.165008e-08
0.02281203
0.0233394
0.02266226
0.02216502
0.02292983
0.02337531
0.02289517
0.004383688
0.003050686
0.002025668
0.002085267
0.002816947
0.001815901
0.00183992
0.007730642
0.01342568
0.01221903
0.01060432
0.04666888
0.008554763
0.01147633
0.01736745
0.01831421
0.01740146
0.01828472
0.0174179
0.01833102
0.01744612
0.01368429
0.01127101
0.01293586
0.01214572
0.01374943
0.01210042
0.01366235
0.001379451
0.003100066
0.006217072
0.003040537
0.003536462
0.002349544
0.007956666
1.978894e-05
3.399764e-05
0.000391518
0.0003015993
1.749405e-05
2.741528e-05
0.00032502
0.0001357052
0.0001126084
0.00025366
0.0003479898
0.0001330117
9.191525e-05
0.0002309671
0.01338919
0.002335175
0.002376381
0.00266394
0.01834094
0.01980747
0.01431368
0.02325087
0.02362661
0.02370831
0.02353724
0.0233346
0.02361775
0.02363872
0.01437981
0.01507138
0.01666896
0.01626413
0.01436259
0.0148575
0.01668866
0.02034468
0.01068975
0.004991414
0.01009373
0.01624134
0.01585283
0.01084783
3.721755e-26
3.152294e-26
2.88647e-26
3.310268e-26
3.721132e-26
3.15228e-26
2.886384e-26
0.02670164
0.02473512
0.02855144
0.005300106
0.00410554
0.03326235
0.03736031
0.01771212
0.01973318
0.0181339
0.02361144
0.02270488
0.0220142
0.02094519
0.01644106
0.002559965
0.003855861
0.02305812
0.01458452
0.003777795
0.003893687
0.01918708
0.02042815
0.02035954
0.01913991
0.01979464
0.01908169
0.01972939
0.02044519
0.02042216
0.02052113
0.01979393
0.01978642
0.01984687
0.01979055
0.02049119
0.02098862
0.02077589
0.02308696
0.0228844
0.02258259
0.0224881
0.02043939
0.02111658
0.02091309
0.02217393
0.0225294
0.0219635
0.02232434
0.01312166
0.0164163
0.01819159
0.01666857
0.01334882
0.01649376
0.0182306
3.203829e-26
2.61507e-26
3.2235e-26
3.135985e-26
2.576345e-26
3.135998e-26
2.576744e-26
0.01666046
0.01681214
0.01687518
0.01685358
0.016569
0.01681114
0.0168974
0.004203661
0.02234747
0.01866022
0.007005369
0.006678911
0.0420073
0.03994269
0.001773686
0.002319559
0.001669117
0.00431252
0.002275297
0.005210869
0.00179758
1.807866e-26
1.572449e-26
1.572088e-26
1.795181e-26
1.807856e-26
1.572449e-26
1.572089e-26
0.006643344
0.01487879
0.01158404
0.03931367
0.04290561
0.00410957
0.009251948
1.250064e-25
1.448083e-24
3.536332e-25
3.723107e-25
1.25085e-25
1.449568e-24
3.540782e-25
0.02998856
0.00282458
0.004257305
0.03262256
0.03546646
0.03305488
0.03637976
1.559607e-26
1.774824e-26
1.565984e-26
1.790743e-26
1.571889e-26
1.775968e-26
1.566985e-26
0.02124962
0.006693489
0.001704232
0.03541355
0.03171765
0.004473862
0.004876581
3.725663e-26
3.265042e-26
3.118479e-26
3.615806e-26
3.723908e-26
3.262791e-26
3.119057e-26
0.017554
0.001713619
0.0016315
0.03027073
0.02616411
0.006011851
0.02724449
6.200269e-08
3.511327e-06
5.029847e-07
2.753444e-06
6.94842e-08
4.201085e-06
6.518266e-07
2.439365e-26
2.0707e-26
2.054099e-26
2.357117e-26
2.461653e-26
2.106136e-26
2.055325e-26
0.01683701
0.01695597
0.01699754
0.01701303
0.01688756
0.01698036
0.01702485
2.464692e-07
2.355613e-07
2.460184e-07
2.629366e-09
6.899788e-09
2.665289e-09
7.002434e-09
0.01727332
0.01733147
0.0183613
0.01829348
0.01731589
0.01738211
0.01847311
2.835331e-07
2.592225e-07
2.801668e-07
5.783613e-08
1.672859e-08
5.155313e-08
1.636511e-08
0.008030106
0.01002663
0.003433453
0.007180869
0.01751947
0.008365863
0.004592858
0.02061196
0.02053352
0.02069082
0.01984072
0.01999451
0.01990467
0.02005909
0.0232397
0.02049458
0.01687944
0.02656908
0.02764652
0.005688782
0.02749961
0.0162087
0.01365608
0.01600948
0.01395124
0.01629735
0.01385611
0.01617043
0.01660029
0.0161094
0.01416327
0.01433994
0.01638411
0.01587233
0.01392439
0.02162083
0.02151423
0.02132114
0.022021
0.02190479
0.02171443
0.02171799
0.01338887
0.01433171
0.00136088
0.005459412
0.01267588
0.01375359
0.001361043
1.415162e-05
9.007846e-05
3.484491e-05
2.468172e-05
1.100727e-05
8.109276e-05
3.538362e-05
0.0149815
0.01298566
0.01030595
0.01266004
0.01510783
0.01306828
0.0104829
1.539948e-07
1.449047e-07
1.539004e-07
8.772116e-27
8.8136e-27
8.776275e-27
8.822469e-27
1.196641e-24
9.101905e-25
1.029751e-24
1.202874e-24
1.203639e-24
1.003896e-24
1.040528e-24
1.146475e-24
8.934469e-09
7.602047e-25
4.183681e-23
1.241413e-24
2.490502e-25
8.483217e-25
0.021225
0.01994237
0.0198802
0.01998059
0.02039624
0.01997785
0.02042448
1.461628e-24
4.540557e-25
1.288006e-24
2.505419e-15
1.397515e-24
4.204387e-25
1.314782e-24
1.672806e-25
1.929171e-25
1.552446e-25
2.206168e-25
3.034339e-21
1.925789e-25
1.454998e-25
7.44656e-25
4.574803e-06
1.68089e-23
4.45234e-06
6.645839e-25
2.729051e-06
2.324725e-24
0.01724887
0.01861786
0.0173323
0.01892584
0.0173095
0.01872749
0.01740165
1.300504e-24
2.794168e-06
9.98725e-25
6.974679e-14
9.326218e-25
2.591708e-06
8.051229e-25
0.01425102
0.001613288
0.001436577
0.03436423
0.0166426
0.002728794
0.00415744
0.02120805
0.0209327
0.02128656
0.02057506
0.02024118
0.02062341
0.02031858
0.008588075
0.01287911
0.005668484
0.00875776
0.01317214
0.00576975
0.00917793
4.060495e-25
7.588868e-25
1.728558e-24
1.460231e-24
4.759448e-25
2.404048e-25
1.531793e-24
0.004774343
0.002989577
0.002333214
0.003019097
0.00603169
0.001973753
0.003946022
0.004038086
0.001513918
0.00124851
0.002835523
0.002521824
0.003092709
0.004332347
0.0007971176
0.00222345
0.001084379
0.002418824
0.001189268
0.003441247
0.001561353
0.0003676618
9.103839e-05
0.0003135528
6.184807e-05
0.0003416241
6.081279e-05
0.0002869305
0.0002725055
6.108873e-05
0.0002817052
6.28545e-05
0.0002646447
5.987457e-05
0.000280962
0.0001421104
3.22624e-05
0.0001999636
3.418398e-05
0.0001489224
4.3701e-05
0.0001870824
0.003250415
0.00171106
0.005950788
0.005616529
0.004643087
0.008169919
0.00948497
0.004393073
0.006203481
0.004110057
0.008282179
0.008039226
0.007948049
0.005718516
0.000315128
0.0005478923
0.001077967
0.0002708311
0.0002948543
0.0007379053
0.001184751
0.007257248
0.003699666
0.01032106
0.00205285
0.004982432
0.002915006
0.003456147
1.552004e-05
8.963908e-06
2.069471e-05
6.368068e-05
2.531985e-05
1.356943e-05
3.024194e-05
8.178123e-05
2.09963e-05
0.0001052533
2.578107e-05
0.0001095737
3.391984e-05
0.0001297357
0.004277919
0.008133566
0.006445598
0.01268069
0.005079967
0.009707077
0.007063701
2.382166e-26
2.839063e-26
2.505935e-26
3.014427e-26
2.398396e-26
2.851943e-26
2.508169e-26
0.0266063
0.003755576
0.0306051
0.03016223
0.003547498
0.002798226
0.003083482
0.000617414
0.0005134321
0.0002401018
0.0004855251
0.0009811669
0.0007962023
0.0003454363
0.01892009
0.01931244
0.01917278
0.01682141
0.01758221
0.01651847
0.01731654
1.399423e-24
1.149588e-24
1.405152e-24
1.346751e-24
1.098526e-24
1.348452e-24
1.099826e-24
3.016865e-09
1.199186e-26
1.354648e-26
1.084753e-26
6.079867e-09
1.263492e-26
1.471676e-26
6.26496e-26
4.83895e-26
5.424529e-26
5.480222e-26
6.251358e-26
4.831549e-26
5.415693e-26
0.0008641276
0.0003092037
0.001370044
0.0001800985
0.0008838185
0.0003077745
0.001380179
0.02026033
0.01909878
0.01882696
0.02391709
0.02331402
0.02233986
0.02188225
5.375716e-17
6.366023e-24
2.908759e-24
1.448769e-23
8.616498e-25
6.252105e-24
2.073682e-24
1.373807e-26
1.042172e-26
1.417017e-26
1.010128e-26
1.373746e-26
1.042114e-26
1.41701e-26
0.001512604
0.001378033
0.001542869
0.003267489
0.005148579
0.004176083
0.003963359
0.0001667419
0.0005655125
0.0005481102
0.000181846
0.0001891861
0.0005476071
0.0005157272
0.006286015
0.01256244
0.005607525
0.009280905
0.03568398
0.009820136
0.005801031
0.02057821
0.01659889
0.01748004
0.02033718
0.02100101
0.01653504
0.01707932
0.002201756
0.003887335
0.00295573
0.002223863
0.00199242
0.01892595
0.002852589
8.642493e-08
1.230274e-16
5.827005e-08
3.311565e-08
9.169571e-07
2.202534e-08
5.50619e-07
0.01822311
0.01778714
0.01798785
0.01052128
0.01201106
0.01091941
0.0127196
0.004892481
0.01990922
0.00421878
0.004138798
0.004903737
0.005127716
0.006153877
0.0008196308
0.0004861468
0.0001477827
0.001021918
0.000808196
0.0005589835
0.0001593042
2.654909e-24
3.65798e-24
4.344688e-24
4.153266e-24
2.514329e-24
3.512741e-24
4.366803e-24
0.02201391
0.02176944
0.02160926
0.02174674
0.02201955
0.02121264
0.02175308
0.0004358522
0.001443589
0.0003730245
0.00187589
0.0004753608
0.001401127
0.0004215929
1.604007e-26
1.471724e-26
1.637175e-26
1.422555e-26
1.604566e-26
1.469592e-26
1.635668e-26
0.002762903
0.001194795
0.001388565
0.005067368
0.005163514
0.02527845
0.007321864
0.002914195
0.005042331
0.003740459
0.006732954
0.002951356
0.005286603
0.004005967
5.794828e-26
6.858772e-26
5.437185e-26
6.315118e-26
6.872933e-26
5.439091e-26
6.317256e-26
0.000360163
0.0001647413
0.0001973655
0.0004540209
0.0004802544
0.0001905127
0.0002467553
1.612184e-26
1.421412e-26
1.619234e-26
1.464777e-26
1.65103e-26
1.440748e-26
1.630768e-26
0.005202726
0.002204264
0.00188524
0.00128326
0.004951466
0.002263195
0.001908982
0.02061514
0.02178028
0.02027557
0.01889348
0.02088723
0.02180435
0.01990687
0.0009401148
0.0003205625
0.0008509224
0.0009184195
0.002070498
0.0004925503
0.001297105
3.659643e-05
8.31362e-05
2.769032e-05
6.966194e-05
4.238023e-05
9.525288e-05
2.846678e-05
0.01420743
0.01441957
0.01526517
0.009165397
0.01204913
0.1117707
0.008277564
0.0423121
0.005390797
0.005143903
0.03111975
0.03930213
0.034557
0.04150042
0.004739748
0.009980671
0.01161043
0.01789218
0.004032473
0.01623255
0.01976158
0.002459933
0.0007061643
0.0006220835
0.002458592
0.002606432
0.000728195
0.0007674824
0.002166148
0.002831147
0.002815293
0.008973545
0.01256352
0.01313129
0.01597407
0.0001705063
0.0001207973