/*--------------------------------*- C++ -*----------------------------------*\
| =========                 |                                                 |
| \\      /  F ield         | OpenFOAM: The Open Source CFD Toolbox           |
|  \\    /   O peration     | Version:  1912                                  |
|   \\  /    A nd           | Website:  www.openfoam.com                      |
|    \\/     M anipulation  |                                                 |
\*---------------------------------------------------------------------------*/
FoamFile
{
    version     2.0;
    format      ascii;
    class       volScalarField;
    location    "40000/fluid";
    object      Ct2;
}
// * * * * * * * * * * * * * * * * * * * * * * * * * * * * * * * * * * * * * //

dimensions      [0 0 0 0 0 0 0];


internalField   nonuniform List<scalar> 
4960
(
8.88168
8.810898
8.884726
8.881377
8.79598
8.859489
8.875622
1
8.867597
8.892654
8.866098
1
8.881318
8.867486
1.168257
8.87065
5.935616
8.880124
8.879796
1.001175
1
8.877018
8.877104
8.868139
5.829453
8.870976
1.11875
8.88122
1.647193
8.430687
1.287531
1.201723
1
1.323661
1.338464
8.875405
8.877632
8.520075
2.708214
8.794247
8.865971
8.812355
8.880251
1.040537
1.099809
8.759515
8.873453
1.022669
8.873782
1.408778
8.864484
8.877138
8.866458
8.865621
8.87857
8.866917
8.876789
8.88946
8.872775
8.88399
1.360967
8.878927
8.878109
8.881619
1
8.829857
1.002332
8.877393
1
8.879288
8.873396
8.879308
8.884786
3.447498
8.86507
1.335762
8.880468
8.875727
8.128897
1
8.880181
8.869721
8.864936
8.881645
6.529316
8.873243
8.865513
2.665909
8.86596
4.54519
2.351391
1.956199
8.871251
8.872121
8.861582
1
2.013201
8.877507
4.747467
8.272747
8.867259
8.865699
8.881029
8.867933
8.562128
8.87108
8.881738
8.881535
8.881784
8.866573
8.810482
8.870124
6.055424
8.868365
2.482365
8.892666
4.294856
8.86577
8.166977
8.87028
8.876446
8.720352
8.880776
1.000093
8.865477
8.88161
8.86602
8.865916
8.878744
8.787735
8.880119
8.87236
8.869489
8.87338
7.736986
5.897063
2.888506
8.873916
5.615111
8.641907
8.867142
8.872344
1
8.846551
1
1.000004
1
8.866665
8.832267
8.869488
8.866236
1
1.000157
2.994925
8.877228
8.804697
1
8.866366
1
1
1
1
1
8.881646
1.000988
8.869567
8.865516
8.876868
8.86833
8.880137
8.864808
8.875152
8.425009
8.872512
7.502601
8.808225
8.874438
1.001304
8.86783
1.000012
8.866739
2.073145
1
8.861915
1.000112
1.001069
1.048639
8.859072
8.867083
1.003491
8.871526
8.876555
8.872299
1
8.877524
8.875495
8.85429
1
8.875055
7.490723
1
1.154157
8.878004
3.372569
8.847182
8.851229
8.183318
8.871166
8.497274
8.497826
1
7.866415
1.399566
8.780938
8.810014
1
8.879966
1.352083
8.645027
1
8.881659
8.868752
8.876045
8.867733
1
8.877354
8.893037
1
8.870089
2.851473
1
8.866995
8.88827
1
8.864777
8.860804
8.880057
1
5.171898
8.871001
8.865652
1.359184
8.881236
8.869114
8.869816
1.771879
1
8.862028
8.808251
1.261766
8.865245
8.865848
6.946447
8.521541
8.786735
8.86302
8.880033
8.64007
7.580462
8.871221
8.869027
7.508893
1
1.021414
8.892492
8.881771
8.868515
8.301085
8.870333
1.372315
1
1.577372
8.766165
1.045203
8.861826
6.947747
8.878879
6.457703
8.010429
1.010228
1
1
1
8.495592
8.866115
8.877491
8.87009
8.863893
8.872294
8.831421
8.865333
1
1.391222
8.767313
1.808127
8.869744
1.393929
1.008534
1
8.87984
1.38629
1
1.36465
8.875752
8.865248
1.000011
1.396295
8.874481
8.879311
8.871338
1
8.86114
2.321764
1.423905
1.28653
8.281962
8.876279
6.889182
1.270782
5.099141
1.616119
2.687362
2.274687
1.378005
6.972771
2.514062
3.437352
1.755818
1.406009
3.548703
8.875238
8.873755
8.841797
8.872288
8.875039
8.877677
8.870676
8.877026
8.875101
1
1.148468
1.419947
1.393091
8.868
1
1.311003
1
8.877963
8.876648
8.877693
8.878125
1
8.879393
8.876837
8.87386
8.868952
6.719415
8.865117
8.878049
1
8.86623
8.869906
8.86436
7.203765
1
1
8.607418
1
8.751355
8.879376
1.04577
2.381853
8.824775
8.877957
8.865676
8.796522
1.378924
8.866918
1
4.813723
8.882911
1
8.878688
1.164833
1
8.87354
8.863343
8.492458
8.871895
8.779448
8.877359
1.458827
1.415388
1.175052
1
8.877844
1.624156
8.870459
5.0829
8.878746
5.060961
8.738565
8.873818
1.157254
2.160078
8.865583
8.876573
1.008538
1
1
1.482922
1
8.876315
1
8.870859
1.026079
1
8.870279
8.87825
8.874866
8.873664
1
8.869567
8.172115
8.880101
8.368914
3.536597
8.890569
1
1.525674
8.843629
1.066714
8.869083
8.875981
8.865142
8.867463
1.207594
8.878914
8.872536
1.007766
8.89266
8.87641
8.866436
1
1.516263
1
8.872548
6.829285
8.87098
7.999119
8.863974
8.875799
8.872998
1
8.870302
8.87606
1
8.892718
8.870607
8.870057
8.7071
8.873532
1
8.863921
1
8.877666
8.875725
8.858998
1
1.514244
1.329472
1.011769
8.878629
8.874568
8.864062
1.038876
1.466536
8.878326
8.875179
8.879402
1.00031
8.881732
8.881723
8.881675
8.881807
8.865537
1.000026
8.87164
1
8.877127
8.892919
8.892278
1.002889
8.891777
8.876132
1
3.584674
8.87563
8.871321
1.332817
8.873718
1.0012
1
1.005947
1.008882
8.890769
8.862187
8.860456
1.000244
8.893292
7.820246
8.876806
1
8.878032
8.865835
8.881666
1
1.003809
1
8.8739
8.870319
1.009105
8.892047
1.000077
1
8.865741
8.872682
8.840346
8.874754
8.87471
8.819787
8.878111
8.876051
1
1
8.888855
8.762331
8.836477
8.821324
8.893191
8.875401
1
1
8.877932
1.023111
5.154525
1
8.864225
8.867946
1
6.494935
8.865896
7.392169
8.878169
8.869828
8.877656
6.209156
8.865196
8.869921
8.793821
8.870384
8.868736
8.864673
1.338924
3.434517
1.35811
8.871254
8.876856
8.878062
8.878351
8.870266
1.438924
1.275971
8.890199
1.040893
8.878647
8.881559
1
8.874845
1.083727
1.347422
8.874358
8.878716
8.871196
1
8.867648
8.869102
1
8.893624
8.398833
8.868132
8.842035
8.866484
8.874077
8.862137
1
8.864227
1.367069
1.00961
8.872465
8.878221
8.878763
8.874312
8.864137
8.881396
8.881556
8.880204
1.341607
8.880237
1.375499
1
1.039485
1.076414
8.868521
8.863906
1
1
8.880253
8.881778
8.894307
8.881701
8.88168
8.881701
8.88076
8.880819
8.88076
8.880819
8.764519
8.866078
8.862364
8.867565
8.857198
8.868043
8.867944
8.88516
8.887173
8.882612
8.884758
8.885334
8.88718
8.882802
8.881301
8.881377
8.881301
8.880479
8.880569
8.880479
8.88057
1.345058
1.397165
2.790661
8.865484
1
1.154231
1
8.861581
4.727347
7.743149
8.667903
8.861553
8.859589
8.146538
8.87616
8.875405
8.875333
8.876119
8.876159
8.874536
8.875331
1
1
1.002187
4.182358
1
3.235544
1
8.532967
8.645173
8.79889
8.870333
8.870572
8.870019
8.871231
8.892422
8.892741
8.892395
8.892654
8.892422
8.892741
8.892395
8.864677
8.615802
8.821503
8.690935
8.65365
8.818061
8.840062
1
1
1
1
1
1
1
8.881317
8.8802
8.880745
8.880537
8.880197
8.880743
8.880537
8.86758
1.602734
5.754915
8.867552
8.867214
3.15412
7.615932
1.306272
1.142599
1.380397
1.286422
2.655387
1.198832
1.455282
8.867433
1.266864
8.867989
1
1.000002
1
1.339639
8.866742
8.039262
6.900585
8.867138
8.868054
8.868197
8.86637
8.880057
8.879259
8.879348
8.880124
8.880057
8.879259
8.879348
8.878671
8.879573
8.878963
8.879796
8.878671
8.879573
8.878963
1.116017
1.002164
1.001152
1.004153
1.001155
1.005974
1.001148
1.033097
1.300303
1
1
1.322463
1.402067
1
8.877673
8.876534
8.87714
8.877018
8.877673
8.876534
8.87714
8.877588
8.877645
8.877038
8.877104
8.877588
8.877645
8.877038
8.876134
8.876034
8.874831
8.875383
8.876025
8.873706
8.864008
8.73609
4.634654
8.860152
6.713056
1.274827
7.257806
1
8.870717
8.871643
8.87128
8.870975
8.870716
8.871642
8.87128
8.864982
3.4632
8.864903
1.000089
1.9425
8.865298
1
8.881128
8.881219
8.881128
8.880401
8.880328
8.8804
8.880326
8.866311
8.609627
8.865644
1
1
1
1
6.124423
8.022178
8.619122
1.797218
1.837085
1.353745
3.132147
1.000325
1.554486
1.048173
1
1.009573
1.000001
1.408619
1.35678
1.313258
1.311409
1.082456
1.159897
1.332268
1.1287
1
1
1
1
1
1.252243
1
1.080561
1.08699
1.419661
1.289458
1.376883
1.345399
1.407564
4.600741
8.865601
1.27281
1.777624
8.866043
8.865726
2.59293
8.874865
8.874996
8.875525
8.875405
8.874865
8.874996
8.875525
8.877698
8.877218
8.876046
8.87764
8.877703
8.876948
8.876358
3.381732
8.868041
5.464931
5.182606
6.341983
6.379942
2.357613
1.781767
7.012278
4.514995
8.859417
1.857434
8.790619
8.865392
8.867038
8.872894
8.86625
8.87375
8.875775
8.87474
8.868645
8.866383
8.866259
8.735489
8.866895
8.867572
8.866944
8.867119
8.434618
8.868974
8.802972
8.619485
8.868211
8.807668
8.844443
8.879496
8.880241
8.879524
8.880251
8.879496
8.880242
8.879524
3.924807
1.27018
1.01419
1.08253
8.140877
1.05478
1.026311
1.583326
1.149015
1.002812
1.000791
8.858613
1.002802
1.012393
1.550427
8.867168
8.867037
3.220628
1.541949
8.866746
8.866567
8.873975
8.873393
8.874038
8.873453
8.873975
8.873393
8.874038
8.848185
1.229203
1.000505
1
1
1
1.278521
8.873189
8.873892
8.873308
8.873782
8.873188
8.873892
8.873308
1.778593
1.338911
1.363236
1.335762
1.898659
1.318158
1.330033
8.779647
8.628063
8.810593
8.712973
2.6272
8.777261
8.863764
8.876218
8.880353
8.881062
8.877078
8.87766
8.880355
8.881024
8.865744
8.855099
7.891192
8.868737
8.869381
8.869321
8.868357
8.866047
8.722546
8.137815
8.867182
8.830089
8.296629
7.432662
8.878549
8.879386
8.879153
8.87857
8.878549
8.879386
8.879153
8.866555
8.662581
8.040439
8.808691
8.715986
8.63501
4.444863
8.876731
8.877418
8.876241
8.876789
8.876731
8.877418
8.876241
8.886487
8.888283
8.890043
8.889461
8.886492
8.888283
8.890043
8.872216
8.872775
8.872217
8.874092
8.874621
8.874092
8.874621
8.888008
8.888798
8.885188
8.883984
8.888004
8.888798
8.885198
2.43044
1.355339
6.102953
1.358459
2.501954
1.34755
4.506416
8.879074
8.878251
8.878342
8.878929
8.879076
8.878251
8.878347
8.878738
8.878132
8.878744
8.878109
8.878738
8.878132
8.878744
8.881638
8.881619
8.881638
8.88085
8.880798
8.88085
8.880798
1
1
1
1
1
1
1
1.379619
8.85323
8.858843
1.370196
2.034675
1.043233
1.752049
1.003734
1.552862
8.857063
1.000106
1.000152
1.000093
1.211554
8.877977
8.877148
8.876086
8.877315
8.877496
8.874039
8.876986
1
1
1
1
1
1
1
8.879185
8.8784
8.878635
8.879258
8.879158
8.878315
8.878532
8.873604
8.872971
8.872679
8.873396
8.873604
8.872971
8.872679
8.850741
8.876226
8.832199
8.879718
8.860096
8.877429
8.876223
8.883166
8.887145
8.88545
8.884815
8.883398
8.887162
8.885452
8.475048
3.551985
2.031178
3.211437
1.921783
1.513733
8.866154
4.729305
8.864761
8.817064
8.866033
8.865999
8.865702
8.864028
2.406493
1.016441
2.152732
8.865266
1.266507
1.397324
1.010006
8.8803
8.880467
8.880299
8.879574
8.879743
8.879573
8.879743
8.876295
8.875752
8.87632
8.875727
8.876295
8.875752
8.87632
8.869411
7.824847
8.86893
7.781764
8.868906
7.919769
8.868349
1
1.226129
1
1.012074
1
1
1
8.879462
8.879417
8.880218
8.880181
8.879462
8.879417
8.880218
8.870642
8.870359
8.866368
8.86937
8.87064
8.870293
8.868224
8.865625
8.865505
1.412643
8.865209
8.865253
7.241026
8.864938
8.881651
8.881645
8.881651
8.880863
8.880866
8.880863
8.880866
8.863847
8.710503
8.688132
6.304142
5.415796
7.45695
4.846003
8.874425
8.867801
8.872353
8.87301
8.874601
8.868457
8.864953
1.382368
8.865117
8.865505
8.865712
1.393631
8.865444
7.901337
4.011349
5.113519
1.466296
5.535291
8.865665
2.393446
3.495033
8.816786
8.71613
8.849286
8.865856
8.829106
1.998568
8.860042
2.749415
8.866213
2.009881
7.015016
2.209127
8.866358
1.905144
7.898475
1.692324
8.860396
8.866716
3.268846
8.866458
1.457013
8.843247
8.865376
8.799805
2.018603
2.886874
7.630156
1.392983
8.871888
8.871141
8.871841
8.87125
8.871887
8.871137
8.871842
8.871604
8.872342
8.871835
8.872121
8.871604
8.872342
8.871835
8.8673
8.85462
8.873915
8.870952
8.865119
8.872748
8.873498
1
1
1
1
1
1
1
3.94132
1.305
1.971303
2.733386
7.457614
1.246244
1.641784
8.876933
8.877542
8.876983
8.877507
8.876933
8.877542
8.876983
7.798754
8.867716
7.441147
7.301935
1.881055
4.843045
4.294566
8.558959
8.868755
7.266178
8.266239
8.726217
8.868326
7.303628
8.86783
8.829585
8.866962
3.706291
8.867065
8.867603
7.072392
8.865344
8.865662
8.865429
8.865987
8.866103
3.49508
8.865666
8.88091
8.881029
8.88091
8.880139
8.880242
8.880133
8.880239
8.867482
4.53444
2.976003
8.800406
8.868045
8.867422
1.980722
8.651108
8.805637
8.703099
8.635871
8.794694
8.633081
8.563126
8.871736
8.871909
8.871349
8.87108
8.871737
8.871909
8.871348
8.881754
8.881738
8.881754
8.880927
8.880881
8.880927
8.880881
8.881462
8.881535
8.881462
8.8808
8.880671
8.880798
8.880677
8.881779
8.881784
8.881779
8.881006
8.881006
8.881006
8.881006
8.865128
8.838958
8.867844
8.860897
8.870506
8.869519
8.861721
8.78738
8.811886
8.868515
7.184299
4.846206
8.838732
7.57085
8.869345
8.870018
8.86903
8.757572
8.693698
8.721311
8.82931
8.866824
7.754648
7.841574
8.866946
8.867415
8.408765
8.867162
8.868814
7.992305
7.770125
8.677248
8.868564
8.868549
8.868662
2.30952
1.586659
4.498122
8.866909
1.433315
8.867014
1.557435
8.892666
8.887814
8.884477
8.892344
8.887812
8.884473
8.892344
8.677713
8.867679
8.866883
8.507792
7.467348
6.495582
8.471376
6.962205
5.55755
7.733858
8.865318
8.866765
8.867552
8.867353
7.97051
8.197467
8.268428
8.868124
8.85584
8.549297
8.706958
8.86339
8.787346
8.10682
8.869892
8.870713
8.804236
8.508523
8.876973
8.876473
8.875819
8.876446
8.876973
8.876473
8.875819
8.630126
8.707244
8.580562
8.836704
8.869396
8.868237
8.873197
8.880627
8.880776
8.880627
8.880027
8.879897
8.880027
8.879897
1
1.267789
8.863903
8.86522
8.864907
8.865198
8.865277
2.97974
1.002386
8.865617
1.335706
1.424034
1.034759
4.898893
8.881578
8.88161
8.881578
8.880691
8.880543
8.880691
8.880543
8.865964
1
8.865548
8.866025
8.865964
1.025166
8.865738
1.699333
8.866711
8.866466
1.355428
1.000481
1.255041
8.86783
8.878104
8.878208
8.8786
8.878743
8.878104
8.878215
8.878597
8.867745
8.698401
8.690168
8.869627
8.849095
8.869181
8.852626
8.880119
8.880119
8.88011
8.87936
8.879231
8.879358
8.879228
8.872947
8.872489
8.873063
8.872359
8.872947
8.872489
8.873063
8.8702
8.869867
8.869395
8.869658
8.870199
8.869926
8.869374
8.872653
8.873208
8.872857
8.873379
8.872653
8.873208
8.872857
8.867564
7.764675
8.867282
1.481592
1.260198
7.25224
7.305665
8.148186
8.865889
8.724279
1.951854
3.646088
7.51302
1.521033
1.706016
8.639336
8.819128
7.397645
1.314464
1.379597
1
8.873763
8.874319
8.87446
8.873916
8.873763
8.874319
8.87446
3.543732
2.177996
3.931919
8.866299
6.076278
7.659876
2.884947
8.857134
8.861229
8.858731
6.968302
8.8668
8.86686
8.865735
8.788886
5.319548
8.86667
8.846573
8.867343
8.866729
8.866598
8.875341
8.870405
8.864412
8.87513
8.87536
8.870218
8.860911
1
1
1
1
1
1
1
8.848716
8.850249
8.84207
8.807215
8.85062
8.85086
8.818855
1.369128
1
1.103664
1.432995
1
1
1
1.000527
1.000004
1.00081
1.000005
1.000508
1.000004
1.000748
1
1
1
1
1
1
1
8.866019
8.866067
8.866586
8.866567
5.403871
8.86622
8.866313
8.856459
8.859475
8.8557
8.858987
8.858712
8.865206
8.858655
8.869885
8.867217
8.805402
6.710608
8.867584
8.798618
8.607754
2.148666
6.375513
8.866717
8.866785
7.837281
8.19812
8.866569
1
1
1
1
1
1
1
1.000273
1.000348
1.000262
1.000066
1.000136
1.000215
1.000105
1.389105
7.328698
7.945646
7.092565
5.918439
8.479958
8.386713
8.877904
8.878229
8.877564
8.877228
8.877904
8.878229
8.877564
8.733793
8.863971
8.85896
1.010374
1.009778
1.134191
1.010664
1
1
1
1
1
1
1
8.866816
8.866584
8.866149
8.865931
8.866311
8.865866
8.8653
1
1
1
1
1
1
1
1
1
1
1
1
1
1
1
1
1
1
1
1
1
1
1
1
1
1
1
1
1.000007
1.000128
1.000003
1
1.000005
1.000123
1.000004
8.88164
8.881646
8.88164
8.880786
8.880836
8.880786
8.880836
1.001717
1.006107
1.003034
1.000745
1.001839
1.006217
1.002651
8.870137
7.256279
5.055912
8.86837
8.867312
1.29001
1
8.865344
8.86523
6.344132
8.866383
8.866495
8.866232
8.866415
8.87744
8.877474
8.876896
8.876868
8.877439
8.877474
8.876896
8.867559
1.695253
1.477452
7.928408
7.49158
2.063842
1.272986
8.883567
8.878571
8.880479
8.880137
8.883563
8.878568
8.880475
8.762416
8.865167
8.864565
8.865269
1.381215
8.797138
8.531412
8.875186
8.874559
8.874615
8.875152
8.875186
8.874559
8.874615
8.203052
1.886348
1.871141
6.713122
7.527333
7.60966
1.400518
8.873156
8.873242
8.87252
8.872512
8.873155
8.873242
8.872519
8.574504
1.758082
1.505425
8.865714
8.538182
1
1
8.872723
8.871043
8.872251
8.843072
8.872698
8.870869
8.872102
8.875161
8.875145
8.874508
8.874438
8.875161
8.875145
8.874508
1.000822
1.001058
1.001861
1.001089
1.000609
1.000796
1.001579
8.867319
8.867831
8.867322
8.870559
8.87006
8.870558
8.87006
1.00312
1.00189
1.000013
1.000008
1.002581
1.00157
1.000006
8.866137
8.866745
8.866155
8.868993
8.869548
8.868997
8.869549
1.372515
6.996749
3.29555
1.188328
2.388101
4.01995
3.387929
1
1
1
1
1
1
1
8.849733
8.799798
8.856573
8.826212
1.340979
1.00001
1.009033
1.00036
1.00002
1.000163
1.000012
1.000291
1.000007
1.000075
1.000326
1.000825
1.02184
1.001358
1.000208
1.001042
1.011422
1.163821
1
1
1
1
1
1
1.38868
8.842591
8.866842
8.858531
2.336687
8.819943
8.866735
8.869776
8.865711
8.867772
8.869041
8.86264
8.829058
8.833199
1.000076
1.000162
1.164351
1.004285
1.000066
1.000132
1.157753
8.870977
8.871526
8.870978
8.873577
8.873071
8.873577
8.873071
8.877857
8.876921
8.87773
8.876978
8.87791
8.876921
8.877729
8.877376
8.876626
8.877383
8.876563
8.87782
8.876176
8.877411
1
1
1
1
1
1
1
8.877829
8.877262
8.877837
8.877246
8.877826
8.875312
8.87803
8.87429
8.875545
8.873749
8.875522
8.874794
8.875569
8.874258
8.874085
8.864045
8.876048
8.867787
8.87495
8.867712
8.876369
1.003887
1.000002
1.002822
1
1.00321
1.000001
1.001793
8.877733
8.863574
8.877763
8.87702
8.877461
8.86258
8.877798
1.000326
1.419408
1.201719
1
1
1
1
1
1
1
1
1
1
1
1.133786
1
1.373832
1.004431
1
1.35792
1.000136
8.875791
8.877318
8.877605
8.877259
8.875554
8.877318
8.877351
2.788112
4.953522
6.970756
8.866527
7.647446
8.86615
8.865971
8.867122
7.782915
8.866354
8.867322
8.867001
8.86699
4.812825
8.638033
8.313816
8.709038
3.448559
8.781254
5.926846
8.296328
5.574706
8.869541
7.998823
8.442288
5.556341
8.859036
8.726919
8.866835
8.320683
8.868802
8.870313
8.830928
8.083116
8.868457
8.759247
8.865502
7.251442
8.442594
7.301604
8.868876
8.869435
8.342462
8.862141
8.753685
8.784556
8.80569
8.867668
8.817701
1.281138
1
1.000196
1
1
1.034148
1.013435
7.516514
8.769927
6.883406
8.273912
8.513491
8.463226
8.758037
7.679075
1.359423
2.165004
8.866305
1.338839
8.866326
1.378957
8.783231
8.87189
8.871657
8.783888
8.761657
8.847514
8.839269
7.902379
8.871946
8.826496
8.87142
8.769447
8.707659
8.527127
1
1
1.012125
1.00002
1
1
4.756016
8.8793
8.879177
8.880049
8.879966
8.8793
8.879177
8.880049
3.132149
1.008221
1
1
1
1.000012
1.104849
8.112998
8.646762
8.689202
8.561229
8.807922
8.715083
8.640594
1
1
1
1.00002
1.000026
1.000002
1.000009
8.881671
8.881659
8.881671
8.880839
8.880741
8.880838
8.880741
8.864854
8.868703
8.869417
8.868377
8.866424
8.869244
8.869416
8.87537
8.875649
8.875066
8.876045
8.87537
8.875649
8.875066
8.86678
8.867799
8.864591
8.867588
8.866205
8.867608
8.862624
1
1
1
1
1
1
1
8.876078
8.877346
8.877163
8.877596
8.876129
8.877241
8.876851
8.892488
8.892862
8.892609
8.893037
8.892488
8.892862
8.892609
1.008567
1.352072
1
1
1.000002
1.415491
8.865313
8.586357
6.167928
8.869272
8.869644
8.495945
8.868284
8.868908
1.359316
8.861103
8.122418
1.930889
1.450583
8.861319
8.552975
1
1
1
1
1
1
1
1.502435
1.347987
2.954404
8.866637
1.437912
1.397223
8.1636
8.885453
8.887951
8.884558
8.884743
8.881348
8.883813
8.879405
1
1
1
1
1.000008
1
1
1
1.232257
8.865194
8.86625
8.865665
8.86591
8.86553
8.831007
7.083408
8.862876
8.860964
8.860536
7.359894
8.674804
8.878992
8.879353
8.879829
8.880057
8.87898
8.879353
8.879768
1
1
1
1
1
1
1
8.515971
8.20965
8.831116
3.759936
7.849631
8.856829
8.842267
8.871116
8.87166
8.871693
8.871001
8.871111
8.871658
8.871692
8.865878
8.866702
8.856967
8.864248
8.863856
7.053515
8.366654
8.860843
6.967358
1.198863
8.860858
8.861372
1.328146
1.235711
8.881236
8.88049
8.88027
8.879818
8.88049
8.88027
8.879818
8.31522
8.490762
8.869735
8.868987
8.11745
8.267915
8.86992
8.870006
8.870403
8.870531
8.869814
8.870005
8.870402
8.870533
1.33806
1.551367
7.704546
1.494522
1.532145
1.749133
8.867431
1
1
1
1
1
1
1
8.407262
7.479873
4.627988
8.864847
5.697179
8.640076
8.327145
8.834395
8.870808
8.8628
8.845856
8.764631
8.660976
8.868595
1
1
1
1
1.157971
1
1
6.587177
8.863984
8.864317
7.878198
8.176712
8.444247
8.127626
8.865975
8.866656
8.752312
1.07718
1
2.991225
1.000001
8.852529
8.86543
8.865973
4.092841
7.528506
8.866738
8.867029
2.24745
8.864683
8.864744
8.866221
8.866364
1.486651
8.842901
8.869216
8.852649
8.867103
8.843916
8.869153
8.869677
8.870061
8.857246
8.866888
8.858211
8.865038
8.853468
7.698956
1.000878
8.879034
8.87988
8.879237
8.880033
8.879034
8.879879
8.879237
8.869994
8.868684
8.868696
8.540822
8.869841
8.869545
8.86834
3.854083
3.507295
8.868395
8.859637
6.584233
4.835684
8.867901
8.871303
8.871941
8.871905
8.871232
8.871307
8.87194
8.871907
8.869456
8.869585
8.868119
8.869025
8.869341
8.869671
8.867394
5.881086
1.78712
2.51623
8.86619
8.348172
8.866052
8.865999
1
1
1
1
1
1
1
1.035278
1.326865
1.278942
1
1
1
1
8.891633
8.892246
8.892215
8.892493
8.891633
8.892248
8.892215
8.881778
8.881771
8.881778
8.880963
8.880989
8.880963
8.880989
8.75468
8.82839
8.557956
8.869482
8.816716
8.867357
8.646929
1.036037
1.312503
1.501231
8.866481
8.866189
8.866251
8.866364
8.869773
8.870333
8.869774
8.872568
8.872067
8.872568
8.872067
1
1.910827
8.865836
8.86553
1.118014
3.056142
1.901022
1
1
1
1
1
1
1
4.229602
8.86739
8.653895
1.719243
5.306934
4.011661
8.867294
8.850548
8.624035
8.861076
8.84637
8.719365
8.829243
8.380035
1.045383
1.330708
1.346709
1.040028
1.046229
1.327569
1.351387
1.310042
1.083397
1.0001
1
3.117511
1
1
7.937559
8.824778
8.865564
5.078391
8.791002
8.86658
8.865574
8.879841
8.879958
8.879105
8.878879
8.879841
8.879958
8.879105
8.867246
3.662147
7.085056
6.330241
8.867106
3.916424
6.225065
8.834119
8.867602
7.52384
7.97999
8.822196
8.867568
7.642181
1.456891
1.321556
1.010304
1.294448
1.00903
1.009878
1.189327
1
1
1
1.000038
1.000108
1.000006
1.000014
1.375383
1.004006
1
1
1.056509
1.001269
1.062787
1
1
1
1
1
1
1
8.760376
8.638323
8.60763
8.849391
4.176049
8.835095
1.409847
8.866002
8.865723
8.866131
8.866066
8.866333
8.866718
8.866677
8.87712
8.877983
8.877792
8.877491
8.87712
8.877983
8.877792
8.868648
8.869156
8.870301
8.868871
8.828395
8.861382
8.86984
8.862842
2.98543
8.863665
6.313178
8.862863
1.617387
3.947898
8.87257
8.873219
8.871765
8.872331
8.872686
8.873219
8.87262
8.865287
8.863442
8.861332
8.313548
8.865136
8.863143
8.863369
8.816608
8.87189
8.869317
8.866053
8.814911
8.87204
8.871841
1
1.591777
1.331758
1.175158
1
8.863838
1.659473
1.390647
1.415846
1.439773
1.000063
1.002715
1.016722
1.003005
8.862373
8.226387
8.868073
7.500918
7.237975
8.867889
7.953384
2.326387
1.882202
1.413102
1.588348
2.872667
3.524415
8.585185
8.812906
8.869928
8.870086
8.857326
8.807361
8.870128
8.870726
1.368217
1.457619
1.396142
1.000984
1.10888
1.196437
1
1.032545
1.012103
1.019588
1.012543
1.042183
1.014297
1.022202
1
1
1
1.000846
1.000097
1.001485
1.000075
8.878873
8.879325
8.879318
8.87984
8.878873
8.879325
8.879318
1.396727
1.435492
1.483746
1.034322
1.000253
1.057957
1.019259
1
1
1
1
1
1
1
1.00007
1.10398
1
7.596291
1.20813
8.865122
1.096398
8.875714
8.876272
8.876264
8.875752
8.875713
8.876272
8.876264
8.863502
8.865294
8.863714
8.868333
8.867425
8.868335
8.86737
3.116175
8.535056
8.866943
1.32721
8.864005
8.866357
8.866546
1.710546
2.662339
2.932538
1
8.865149
1.459033
1.161039
8.874948
8.875625
8.876005
8.875437
8.875508
8.876017
8.876002
8.879887
8.879974
8.879349
8.879311
8.879887
8.879974
8.879349
8.872174
8.869591
8.871108
8.860666
8.872522
8.82029
8.870469
8.863854
5.023277
1.000001
1
1.125549
8.864641
1.00161
8.861904
7.830359
8.854485
8.861514
8.861656
5.90783
8.534479
1.547895
4.08027
5.8788
8.864401
8.865344
8.867559
8.868578
1.405332
1.407118
1.408013
1.001498
1.000216
1.274526
1.16266
1
1.001168
1.000255
8.86545
1.000026
1.318762
1
8.869745
6.361254
4.26148
8.868222
8.206032
7.466247
4.522998
8.876629
8.877174
8.876822
8.876279
8.876629
8.877175
8.876823
4.926079
6.594568
8.866455
5.907517
4.589199
3.089856
8.86627
1.3177
1.033119
2.405896
4.07087
1
1.612225
8.450751
1.338356
8.867646
1.500212
1.139088
4.913955
8.86612
1.404651
4.346007
2.505647
1.464145
1.099501
7.567827
1.263912
1.000686
3.228987
8.867383
3.348682
1.083158
1.446714
1.000889
8.86569
1.904057
1.561698
1.90421
1.54444
1.277656
8.865064
1.463532
1.420679
4.202336
1.672289
1.142265
1.141793
1.22283
4.031233
4.86172
1.9627
8.867386
1.21568
8.864491
1.098681
1.361352
2.137838
8.86745
8.557317
1.316645
1.161317
1.407896
1.286614
7.909684
6.577777
8.84761
1.34231
1.36471
1.344861
1.024973
2.008749
1.921418
2.571035
1.491998
1.153386
1.497131
1
1.430425
1.662324
5.758529
1.131216
1.003296
1.004138
1.004374
3.108075
8.867375
6.426336
1.004376
1.016341
1.021743
1.005906
8.875309
8.874761
8.87468
8.875238
8.875309
8.874761
8.87468
8.873692
8.87433
8.873866
8.873749
8.873693
8.874351
8.873859
8.873147
8.87095
8.87492
8.821185
8.872777
8.867232
8.874663
8.872271
8.872869
8.872823
8.872288
8.872271
8.872869
8.872822
8.874198
8.870575
8.870716
8.875838
8.866267
8.870272
8.834808
8.877386
8.878153
8.878006
8.877677
8.877386
8.878153
8.878006
8.869579
8.871977
8.871437
8.870666
8.869498
8.871859
8.869525
8.877555
8.877486
8.877972
8.877026
8.877555
8.877486
8.877972
8.875706
8.876031
8.875374
8.875103
8.875706
8.876031
8.875374
1.001996
1.192299
1.557553
1.000043
1.583576
1.126267
8.299109
1.067535
1.115578
1.444646
1.224536
1.121129
1.352793
1.362148
1.403113
1.413083
1.409565
1.100424
1.223624
1.215632
1.228101
1.401454
1.399541
1.419146
1.000009
1.368524
1
1.000001
8.868349
8.868971
8.866597
8.868133
8.868305
8.869093
8.867791
1
1
1
1
1
1
1
8.864707
1.000846
8.865674
8.864972
8.865563
1.000061
1.028906
1
1
1
1
1
1
1
8.878014
8.878725
8.878677
8.877965
8.878013
8.878725
8.878677
8.877287
8.877279
8.876677
8.876474
8.877263
8.877329
8.876677
8.880751
8.880538
8.877473
8.876275
8.880677
8.880616
8.876948
8.876388
8.882802
8.855136
8.870026
8.872221
8.875521
8.875509
1
1
1.004588
1.00961
1
1
1.193318
8.878683
8.878701
8.879477
8.879383
8.878679
8.878551
8.879475
8.877337
8.879711
8.879144
8.876993
8.877408
8.879672
8.879143
8.873338
8.87386
8.873338
8.875142
8.875659
8.875142
8.875659
8.598579
8.852487
8.862944
8.825798
8.532426
8.85434
8.866419
5.3882
8.849984
8.742507
7.615788
6.079107
6.530689
8.598874
8.865721
3.551068
8.865645
8.86505
8.865733
3.369841
8.86566
8.878084
8.87869
8.87872
8.878049
8.878084
8.87869
8.87872
1
1.178603
1
1
1
1
1
8.491248
8.868588
8.868309
8.835993
8.867882
8.468276
8.788158
8.86547
8.874882
8.865689
8.851082
8.874363
8.874539
8.872581
8.86203
8.864313
4.436394
8.865358
8.248623
8.490956
8.865377
4.568188
8.848976
6.470569
8.7425
5.784027
7.394203
7.168203
1
1
1
1
1
1
1
1
1
1
1
1.397146
1.000006
8.865095
8.624727
8.785775
8.732838
8.756483
8.709063
8.840707
8.832093
1
1.000009
1.953257
1
1.071724
1.000113
1.352409
2.1085
8.865935
8.866132
2.189631
8.762622
8.865918
8.865666
8.8794
8.880103
8.880114
8.879376
8.8794
8.880103
8.880114
1.522917
8.864981
8.863425
8.865621
8.616194
8.865133
8.652967
8.868016
8.867988
6.871006
1.982811
8.86756
8.867477
6.601718
8.861346
8.872648
8.874753
8.870294
8.873205
8.874743
8.874639
8.878604
8.87846
8.877803
8.877957
8.878604
8.87846
8.877803
8.865772
7.627172
7.686156
8.866895
8.866935
8.867085
8.740426
8.816383
8.777391
8.775008
8.814192
8.842527
8.795398
8.831891
1
1
1
1
1
1
1
8.866494
1.312409
8.866804
8.866277
1.501755
1.253876
1.436181
1
1
1
1
1
1
1
2.963247
8.866872
8.866579
8.866437
8.866798
8.866574
8.866255
8.88146
8.887032
8.885472
8.882902
8.881453
8.887031
8.885469
1
1
1
1
1
1
1
8.878738
8.879584
8.879531
8.878571
8.878779
8.879579
8.879527
1.921858
7.990573
1.147592
1.885827
1.089536
8.865842
1.000006
1.263984
1
1
1
1.755736
1
8.841628
8.80957
8.87253
8.87044
8.870996
8.8015
8.874616
8.859559
8.873172
8.871341
8.851439
8.872993
8.872799
8.87414
8.87469
7.511524
8.720186
8.283457
8.842058
8.866247
8.743592
8.86759
8.871428
8.871927
8.873088
8.871673
8.87163
8.871534
8.873652
8.867996
8.852952
8.868861
8.867498
8.553322
8.853454
8.865054
8.87668
8.876227
8.877423
8.877373
8.876706
8.876706
8.877375
1.828106
1.250927
8.865392
1.068893
1.361265
1
8.865389
7.950256
8.867731
1.449287
1.368901
2.022086
1.640341
8.86638
1.013754
1.305172
1.117448
1.103221
1.00398
1.140389
1.005769
1
1
1
1.000105
1.000005
1.000083
1.000085
8.878459
8.878583
8.877654
8.877845
8.87846
8.878583
8.877656
2.465837
1.378012
8.860345
1.623864
2.288742
1.331067
8.860445
7.329797
8.6651
8.727454
8.869992
8.192851
8.850925
8.762604
6.684994
5.571503
8.867064
8.859467
8.866558
8.866967
8.189522
8.878158
8.878196
8.878748
8.878746
8.878158
8.878196
8.878748
3.569038
8.868117
8.064749
6.486252
8.215543
8.745337
8.842704
8.854796
8.868349
8.874018
8.809531
8.584655
8.818889
8.874193
8.874496
8.873891
8.874685
8.873807
8.874496
8.873896
8.874686
1.10433
1.216948
1.000104
8.865192
8.865257
1.158349
8.864694
2.392824
1.407134
8.867867
8.432893
3.124583
1.335042
8.867296
1.54381
8.658207
8.865034
7.604719
8.86512
8.864898
8.864613
8.875947
8.876052
8.876493
8.876573
8.875947
8.876052
8.876493
1.096151
1.060598
1.157358
1.013617
1.063071
1.098194
1.158035
1
1
1
1
1
1.000083
1.000001
1
1
1
1
1.000484
1
1.000932
8.496822
5.158726
8.859593
1.434633
8.85993
4.212382
8.859652
1
1
1
1
1
1
1
8.87697
8.873186
8.874617
8.876313
8.876497
8.875441
8.871306
1
1
1
1
1
1
1
8.871118
8.871344
8.870654
8.870859
8.871118
8.871344
8.870658
1.021698
1.325793
1.221666
1.022823
1.057478
1.403726
1.233529
1
1
1.000061
1.000068
1.000041
1.000001
1.000014
8.87012
8.8694
8.869804
8.870361
8.870152
8.869327
8.869627
8.878817
8.878815
8.878165
8.878249
8.878817
8.878815
8.878166
8.874365
8.874866
8.874365
8.876676
8.876169
8.876676
8.876169
8.874133
8.873713
8.874266
8.873664
8.874133
8.873712
8.874266
1
1
1
1
1
1
1
8.870436
8.872147
8.870607
8.868978
8.87178
8.872761
8.87208
8.818368
8.832073
8.657229
8.865356
6.806875
7.933653
8.685897
8.879485
8.880055
8.879384
8.880101
8.879484
8.880055
8.879383
8.866277
8.85792
8.656289
6.221149
8.866397
8.76815
6.976538
8.865736
1.162442
1.000005
1.000018
1.345424
1.000019
1.000025
8.890954
8.892008
8.891975
8.890568
8.890955
8.892008
8.891976
1.047186
1.414071
1.829385
1.043299
1.4969
8.86039
1
8.840527
8.864517
1.151519
1.208499
1.309075
1.004197
8.865583
8.869526
8.764572
8.864256
8.865332