/*--------------------------------*- C++ -*----------------------------------*\
| =========                 |                                                 |
| \\      /  F ield         | OpenFOAM: The Open Source CFD Toolbox           |
|  \\    /   O peration     | Version:  1912                                  |
|   \\  /    A nd           | Website:  www.openfoam.com                      |
|    \\/     M anipulation  |                                                 |
\*---------------------------------------------------------------------------*/
FoamFile
{
    version     2.0;
    format      ascii;
    class       volScalarField;
    location    "40000/fluid";
    object      d.gas;
}
// * * * * * * * * * * * * * * * * * * * * * * * * * * * * * * * * * * * * * //

dimensions      [0 1 0 0 0 0 0];


internalField   nonuniform List<scalar> 
4960
(
0.002767219
0.002715399
0.002738881
0.002764827
0.002673831
0.00266461
0.002724996
0.002674849
0.002734464
0.002751535
0.002715384
0.00264489
0.002764359
0.00269609
0.002641989
0.002708911
0.00269485
0.002755077
0.002752526
0.002675284
0.002676895
0.002731461
0.002732062
0.002719487
0.002691195
0.002687598
0.002677828
0.002763597
0.002682899
0.00269347
0.002667299
0.002627677
0.002680814
0.002685828
0.002688414
0.002719451
0.002736088
0.00269659
0.002694663
0.002714852
0.002716535
0.002716135
0.002756054
0.002682977
0.002635055
0.002688815
0.002705244
0.002671525
0.002707617
0.002643653
0.002688606
0.002728849
0.002733325
0.002715569
0.002743145
0.002716307
0.002729723
0.002740029
0.002715016
0.002735902
0.002653352
0.00274588
0.002739632
0.002766716
0.002627558
0.002690976
0.002632775
0.00273828
0.002639902
0.002748852
0.00270484
0.002738263
0.002734834
0.002697648
0.002696609
0.002682199
0.00275773
0.002721831
0.002698474
0.00265841
0.002755515
0.002681267
0.002681478
0.002766926
0.002712326
0.00272384
0.002688374
0.002696015
0.0026892
0.002695531
0.002699464
0.002697379
0.002689549
0.002695714
0.002725482
0.002654217
0.002681384
0.002735088
0.002710479
0.002695608
0.002702492
0.002699301
0.002762116
0.002704895
0.002713572
0.002688358
0.002767677
0.002766066
0.002768043
0.002729129
0.002708856
0.002724468
0.002696448
0.002706989
0.002700853
0.002751723
0.002702936
0.002704738
0.002705396
0.002697237
0.002727186
0.002732592
0.002760128
0.002680317
0.002686613
0.00276666
0.002676654
0.002702616
0.002744474
0.002721098
0.002755024
0.002697414
0.002678451
0.002704714
0.002706799
0.002699138
0.002693766
0.002708589
0.002700252
0.002697643
0.002699148
0.002717549
0.002661019
0.002657262
0.002666576
0.00264535
0.002664333
0.002696677
0.0026648
0.002716165
0.002698378
0.002656621
0.002647469
0.002728658
0.002733
0.002682399
0.002627573
0.002677974
0.002655705
0.002649297
0.002643465
0.002651243
0.002653508
0.002766935
0.002641706
0.002701953
0.002703088
0.002730302
0.002691958
0.002737756
0.002682339
0.002717597
0.002684579
0.002698504
0.002678645
0.002699177
0.002712378
0.002647869
0.002686532
0.002642476
0.002679688
0.002656019
0.002643166
0.002681941
0.002654081
0.002640978
0.002655599
0.002682391
0.002726854
0.002652878
0.002707705
0.002731187
0.002731835
0.002624779
0.002735418
0.00272038
0.002732332
0.002633787
0.002733134
0.00267432
0.00263728
0.002656021
0.002738862
0.002703404
0.002704053
0.002701036
0.002704278
0.002704922
0.002705329
0.002700609
0.00267495
0.002697359
0.002693509
0.002718255
0.002705696
0.002665413
0.002753834
0.002689316
0.002710684
0.002626885
0.002767048
0.002672605
0.0027242
0.002687837
0.002633236
0.002737814
0.002754895
0.002670867
0.00269777
0.002658856
0.002661024
0.002682667
0.002749375
0.002642313
0.002685739
0.002663689
0.002754545
0.00266055
0.002663564
0.002687813
0.00266933
0.002657014
0.002763728
0.002711485
0.002679563
0.002686397
0.002665254
0.002746939
0.002718217
0.002665853
0.002674453
0.002691774
0.002707711
0.00269723
0.00271184
0.002667376
0.002754361
0.002691995
0.002695308
0.002690316
0.002674042
0.002691537
0.002665166
0.002662051
0.002750146
0.002767939
0.002728048
0.002688179
0.002700545
0.002673399
0.002651995
0.002686584
0.002701843
0.002648517
0.002665342
0.002675248
0.002745515
0.002688607
0.002683142
0.002675047
0.002634027
0.002667781
0.00265002
0.002698797
0.00270703
0.002734993
0.002705517
0.00266924
0.002699389
0.002669174
0.002699366
0.002666429
0.002665304
0.00270929
0.002744868
0.002681921
0.00266759
0.002635468
0.002616628
0.002752878
0.002662946
0.002629618
0.00266733
0.002722017
0.002672866
0.00267918
0.002665669
0.002719737
0.002748786
0.002729382
0.002667342
0.002665292
0.002745898
0.00266138
0.002673146
0.002693929
0.002725952
0.002696642
0.002710922
0.00266217
0.00266159
0.002661179
0.002661087
0.002662333
0.002660876
0.002660682
0.002662426
0.002660758
0.002662089
0.0026603
0.002718228
0.002707482
0.002723086
0.0026969
0.002730882
0.002736402
0.002690684
0.002731512
0.00271733
0.002679135
0.00264029
0.002661491
0.002661626
0.002671396
0.002648357
0.002669351
0.002656616
0.002738574
0.002728699
0.002728552
0.00274884
0.002673091
0.002749518
0.002730028
0.002722398
0.002691425
0.002705834
0.002676519
0.002739177
0.002671789
0.002720493
0.002710815
0.002687813
0.002709782
0.002662312
0.002738504
0.002656819
0.002661577
0.002674235
0.002749291
0.002683094
0.002685624
0.002710472
0.002738486
0.002711458
0.002657159
0.002658756
0.002682745
0.002652316
0.002679597
0.002736347
0.002644672
0.002744646
0.002672483
0.002671267
0.002710109
0.00270988
0.002707747
0.002708562
0.002707746
0.002734108
0.002671604
0.002665471
0.002676728
0.002623434
0.002737667
0.002661147
0.002702048
0.002685055
0.002744463
0.00268558
0.002709489
0.002708093
0.00267914
0.002685611
0.002682852
0.002728097
0.002634835
0.00263791
0.002613999
0.002656729
0.002667878
0.002726189
0.002648552
0.002686816
0.002646105
0.002639539
0.002683296
0.002740716
0.002729794
0.002706785
0.00265982
0.00272052
0.002707361
0.002754886
0.002709301
0.002668819
0.002742551
0.002652834
0.002685939
0.002703427
0.002679171
0.002693479
0.00272379
0.002673502
0.002686385
0.002675158
0.002745784
0.002698691
0.002654497
0.002751907
0.002728015
0.002679378
0.002635516
0.00268373
0.002660593
0.002698904
0.002679941
0.002747923
0.00270496
0.002671244
0.002722355
0.002732152
0.00264642
0.002701707
0.002737324
0.002640645
0.002752153
0.002685041
0.002682228
0.002676155
0.002705813
0.002651956
0.002722992
0.002645189
0.00273317
0.002721861
0.002667911
0.002627997
0.002693932
0.002666601
0.002678496
0.002743618
0.002713344
0.002677007
0.002685241
0.002689355
0.002741898
0.002727519
0.002749484
0.002661018
0.002767629
0.002767548
0.002767167
0.002768215
0.002673304
0.002674359
0.002721867
0.002652432
0.002744929
0.002753671
0.002751215
0.002667934
0.002746207
0.002724871
0.002669468
0.002663312
0.00272112
0.002726002
0.002677201
0.002707168
0.00266748
0.002663105
0.002666602
0.002666981
0.002750602
0.002742703
0.00266641
0.002667518
0.002757125
0.002714666
0.002729839
0.002670591
0.002739078
0.002671261
0.002767101
0.002610754
0.002666883
0.002660719
0.00270851
0.002706333
0.002668741
0.002746919
0.002641224
0.002716956
0.002676309
0.002699709
0.002675512
0.002719404
0.002714427
0.002713022
0.002739683
0.002724228
0.002661215
0.002660981
0.002740978
0.002657187
0.002664764
0.002730019
0.002756136
0.002719474
0.002666403
0.002656345
0.002738315
0.002667402
0.002671018
0.002631118
0.002666371
0.00271017
0.002666935
0.002675753
0.002674732
0.00267822
0.00275267
0.002680042
0.002736221
0.002693805
0.002675824
0.002715162
0.002658422
0.00268349
0.002673605
0.002683527
0.002667455
0.002651237
0.002684851
0.002689571
0.002730232
0.002739305
0.002741586
0.00271973
0.002673749
0.002620414
0.002743086
0.002666292
0.00274493
0.00273316
0.002649335
0.002715847
0.002628528
0.00268311
0.002712218
0.002744272
0.002727095
0.002636908
0.002670195
0.002674597
0.00264314
0.002760003
0.002708751
0.002717316
0.002716546
0.00267439
0.002709764
0.002653346
0.002642339
0.002667897
0.002633988
0.002623367
0.002698159
0.002759953
0.002744651
0.002728084
0.002671513
0.002764965
0.002736605
0.002755695
0.002617812
0.002755935
0.00267416
0.002677691
0.002629522
0.002621376
0.002726287
0.002667014
0.002610059
0.002666715
0.002756074
0.002767965
0.002766011
0.002767391
0.002767219
0.002767391
0.002760017
0.002760475
0.002760017
0.002760475
0.002719894
0.002719601
0.002715038
0.002715382
0.002719881
0.002719588
0.00271502
0.002737793
0.002741101
0.002735621
0.002738884
0.002737793
0.002741102
0.002735622
0.002764231
0.002764825
0.002764229
0.002757831
0.002758524
0.002757829
0.002758522
0.002676775
0.002677046
0.002673069
0.002673823
0.00267691
0.002677111
0.002673018
0.002667913
0.002664752
0.002668429
0.002664582
0.002667887
0.002664718
0.00266839
0.002725052
0.002719481
0.002718943
0.002724986
0.002725047
0.002719473
0.002718928
0.002669983
0.002672101
0.002672721
0.002674801
0.002670213
0.002672316
0.00267274
0.002730184
0.002728903
0.002735538
0.002734456
0.002730176
0.002728892
0.002735533
0.002749574
0.002752305
0.002749332
0.002751535
0.002749573
0.002752304
0.00274933
0.002718022
0.002713813
0.002720388
0.002715361
0.002718002
0.002713785
0.002720371
0.002647729
0.002647297
0.002645383
0.002644842
0.002647734
0.002647304
0.002645363
0.002764357
0.002755653
0.00275988
0.00275827
0.00275565
0.002759878
0.002758267
0.002696272
0.002691501
0.00269218
0.00269603
0.002696198
0.002691449
0.002692084
0.002641117
0.002640235
0.00264335
0.002642191
0.002640983
0.002640048
0.002643368
0.002706211
0.002711427
0.002703576
0.0027091
0.002706001
0.002711641
0.00270334
0.002701906
0.002697902
0.002699098
0.002694764
0.002701356
0.00269759
0.00269876
0.002754564
0.002748416
0.002749098
0.002755077
0.002754565
0.002748417
0.002749099
0.002743909
0.002750816
0.002746133
0.002752526
0.002743909
0.002750816
0.002746133
0.002672649
0.002672404
0.002675452
0.00267532
0.002672561
0.00267227
0.00267541
0.00267686
0.002674634
0.00267441
0.002676862
0.002677002
0.002674599
0.002674511
0.002736377
0.002727854
0.002732374
0.002731462
0.002736378
0.002727856
0.002732375
0.002735693
0.002736122
0.002731568
0.002732062
0.002735693
0.002736122
0.002731568
0.00272487
0.00272458
0.002719569
0.002719484
0.002724867
0.002724579
0.002719563
0.002691043
0.00269418
0.002687993
0.0026911
0.002691043
0.002694361
0.002687967
0.002685781
0.002692307
0.00268975
0.002687591
0.002685775
0.002692303
0.002689745
0.00268067
0.00267711
0.002675215
0.002677783
0.002680657
0.002677082
0.00267518
0.002762891
0.002763595
0.002762889
0.00275722
0.002756648
0.002757218
0.002756646
0.002688318
0.002685928
0.002685253
0.002682907
0.002688236
0.002685761
0.002685246
0.002689702
0.002687498
0.002691611
0.00269339
0.002689619
0.00268741
0.002691555
0.002671165
0.002667776
0.002670058
0.002667675
0.002671175
0.002668004
0.002670186
0.002627466
0.002625366
0.002628922
0.002627714
0.002627547
0.002625392
0.00262903
0.002683816
0.002681934
0.002678976
0.002680901
0.002683717
0.002682066
0.002679174
0.00268294
0.002680334
0.00268345
0.002685812
0.002682964
0.002680312
0.002683428
0.002690442
0.002686723
0.002685005
0.002688355
0.00269041
0.002686649
0.002684996
0.002715492
0.002716454
0.002720335
0.002719451
0.002715492
0.002716454
0.002720335
0.002736644
0.002733013
0.002733174
0.002736085
0.002736641
0.002733008
0.002733169
0.002696168
0.002692343
0.002691525
0.002696545
0.00269613
0.002692281
0.002691443
0.002692506
0.002689773
0.002687624
0.00269464
0.002692498
0.002689762
0.002687587
0.00272305
0.002717409
0.002719058
0.002714821
0.002723037
0.002717389
0.002719036
0.002723955
0.002719616
0.002719672
0.002716515
0.002723943
0.002719599
0.002719658
0.00271595
0.002721049
0.002719724
0.002716114
0.00271593
0.002721033
0.002719706
0.002750235
0.002755984
0.002750448
0.002756055
0.002750235
0.002755985
0.002750448
0.002682873
0.002679072
0.002679534
0.00268299
0.002682878
0.002679019
0.002679603
0.002638572
0.002637754
0.002635888
0.002635164
0.002638398
0.002637613
0.002635863
0.002687507
0.002684919
0.00268408
0.002688846
0.002687529
0.002684957
0.002684121
0.002709014
0.002704812
0.002709473
0.002705243
0.002709014
0.002704811
0.002709473
0.002675768
0.002672366
0.002673764
0.002671627
0.002675937
0.002672417
0.002673983
0.002703341
0.002708414
0.0027042
0.002707617
0.002703339
0.002708413
0.002704199
0.002646841
0.002645268
0.002645174
0.002643621
0.002646711
0.002645239
0.002644955
0.002685759
0.00268539
0.002689329
0.002688601
0.002685728
0.00268549
0.002689312
0.002728323
0.002732544
0.002732075
0.002728841
0.002728315
0.002732539
0.002732069
0.002726323
0.002727552
0.002732292
0.002733312
0.002726322
0.002727545
0.002732288
0.002719174
0.002718131
0.00271532
0.002715553
0.00271916
0.002718115
0.0027153
0.002742983
0.002749378
0.002747596
0.002743145
0.002742983
0.002749378
0.002747596
0.002720958
0.002722363
0.002717868
0.002716274
0.002720935
0.002722349
0.002717845
0.002729293
0.002734434
0.002725644
0.002729723
0.002729293
0.002734434
0.002725643
0.002737181
0.002739217
0.002740975
0.002740026
0.002737178
0.002739215
0.002740973
0.002711341
0.002715016
0.002711341
0.00270986
0.002713706
0.00270986
0.002713706
0.002739307
0.002739347
0.00273574
0.002735898
0.002739305
0.002739345
0.002735737
0.002652337
0.002650668
0.002654749
0.002653404
0.00265234
0.002650664
0.002654743
0.002746996
0.002742274
0.002741454
0.002745879
0.002746995
0.002742272
0.002741452
0.002744405
0.002739802
0.002744454
0.002739632
0.002744405
0.002739802
0.002744454
0.002766867
0.002766716
0.002766867
0.002760694
0.002760282
0.002760694
0.002760282
0.002627883
0.002627863
0.002627996
0.002631577
0.002630687
0.002631632
0.002630795
0.002686363
0.00268604
0.002690054
0.002690931
0.002686264
0.002686001
0.002690027
0.002630678
0.002633505
0.002631386
0.002632923
0.002630702
0.002633619
0.002631498
0.002738651
0.002733935
0.002733831
0.002738277
0.002738647
0.00273393
0.002733826
0.002643951
0.002641439
0.002643152
0.002639781
0.002643906
0.002641345
0.002643096
0.002748012
0.002743042
0.002743638
0.002748851
0.002748011
0.00274304
0.002743635
0.002706334
0.002701781
0.002699688
0.002704839
0.002706333
0.00270178
0.002699686
0.002733871
0.00273818
0.002734582
0.002738267
0.002733873
0.002738184
0.002734586
0.00273387
0.002737675
0.002736162
0.00273483
0.002733866
0.002737672
0.002736159
0.002695531
0.002691925
0.002694081
0.002697589
0.002695455
0.002691839
0.002694039
0.002695332
0.002691916
0.002692944
0.002696598
0.002695346
0.002691923
0.002692913
0.002682404
0.002678306
0.002678901
0.002682197
0.00268237
0.002678297
0.002678944
0.002756424
0.002757729
0.002756423
0.002750818
0.002752124
0.002750818
0.002752123
0.00272603
0.002722015
0.002726215
0.002721831
0.00272603
0.002722015
0.002726215
0.00269804
0.002700971
0.002695275
0.002698492
0.002698063
0.002700989
0.002695301
0.002661032
0.002661556
0.002663316
0.00266125
0.002662083
0.002663185
0.002662391
0.002749975
0.002749629
0.002755804
0.002755515
0.002749976
0.00274963
0.002755805
0.002685262
0.002684443
0.002680461
0.002681238
0.002685245
0.00268443
0.00268044
0.002681391
0.002678803
0.002678703
0.002681666
0.0026816
0.002678735
0.002678884
0.002766975
0.002766926
0.002766975
0.002760797
0.002760817
0.002760797
0.002760817
0.002714162
0.00271734
0.002715637
0.002712287
0.002714134
0.002717321
0.002715609
0.002726063
0.002725376
0.002722448
0.002723829
0.002726053
0.002725366
0.002722436
0.002687468
0.002684531
0.002684979
0.00268837
0.002687451
0.002684585
0.002685056
0.002695915
0.002692011
0.002691231
0.002695993
0.002695878
0.002691988
0.00269123
0.002685419
0.002686078
0.002690182
0.002689169
0.00268542
0.002685985
0.002690119
0.002691793
0.002692778
0.002689034
0.002695471
0.002691728
0.002692793
0.002688918
0.002701054
0.002696229
0.002698099
0.002699396
0.002701047
0.002696259
0.00269808
0.002700982
0.002699273
0.002695672
0.002697374
0.002700969
0.002699241
0.002695666
0.002694057
0.002688873
0.002693732
0.00268954
0.002694051
0.002688865
0.002693728
0.002692054
0.002697288
0.002693689
0.002695714
0.002692053
0.002697288
0.002693689
0.002722059
0.002723466
0.002726363
0.002725473
0.002722046
0.002723456
0.002726355
0.002656489
0.002656406
0.002654329
0.002654099
0.002656402
0.002656296
0.00265425
0.002682047
0.002679048
0.002678627
0.002681457
0.002682096
0.002679169
0.002678759
0.002730782
0.002735351
0.002731156
0.002735088
0.002730782
0.002735351
0.002731156
0.002708685
0.002712218
0.002713909
0.00271044
0.002708635
0.002712175
0.002713875
0.002695691
0.002692357
0.002692714
0.002695628
0.002695716
0.002692383
0.002692743
0.002703877
0.002701288
0.002699721
0.002702491
0.002703856
0.002701268
0.00269971
0.002697904
0.002695313
0.002694055
0.002699269
0.002697867
0.002695282
0.002694027
0.002761175
0.002762114
0.002761174
0.002755243
0.002756008
0.002755241
0.002756006
0.002707483
0.002702896
0.002705591
0.002704859
0.002707433
0.002702814
0.002705513
0.002716209
0.002718083
0.002715246
0.00271355
0.00271619
0.002718067
0.002715226
0.002692987
0.002694211
0.002690251
0.002688357
0.002692986
0.002694211
0.00269025
0.002767808
0.002767677
0.002767808
0.002761315
0.002760959
0.002761315
0.002760959
0.00276549
0.002766064
0.002765488
0.002760326
0.002759362
0.002760324
0.00275936
0.002768
0.002768044
0.002768
0.00276193
0.002761934
0.00276193
0.002761934
0.00272875
0.002724555
0.002724076
0.002729121
0.002728741
0.002724545
0.002724066
0.002705597
0.00270945
0.002706648
0.002708829
0.002705582
0.002709425
0.002706627
0.002722795
0.00272809
0.002726762
0.002724461
0.002722785
0.002728086
0.002726755
0.002699427
0.002693862
0.002696971
0.002696444
0.002699191
0.002693907
0.002696928
0.002709132
0.002709445
0.002711424
0.002706945
0.002709102
0.002709406
0.002711392
0.00270364
0.002698688
0.002701547
0.002700727
0.002703508
0.002698603
0.002701332
0.002751722
0.0027447
0.002746061
0.002748944
0.002744699
0.002746059
0.002748943
0.002706534
0.002708096
0.00270451
0.002702891
0.002706514
0.002708069
0.002704484
0.00270282
0.002706556
0.002708969
0.002704724
0.002702789
0.002706534
0.002708943
0.002702963
0.002704836
0.002707126
0.002705361
0.002702917
0.002704777
0.002707088
0.002699937
0.002697601
0.002694535
0.002697258
0.002699955
0.002697621
0.002694554
0.002731107
0.002727382
0.002722534
0.002727186
0.002731107
0.002727382
0.002722535
0.00273148
0.002737513
0.002736595
0.002732591
0.002731476
0.002737516
0.002736595
0.002758971
0.002760127
0.00275897
0.002754331
0.002753305
0.00275433
0.002753304
0.002677408
0.002676279
0.002679135
0.002680619
0.002677701
0.002676447
0.002679364
0.002684544
0.002683798
0.002682562
0.002686516
0.002684437
0.002683699
0.002682451
0.002766406
0.00276666
0.002766406
0.002759461
0.002758313
0.002759461
0.002758313
0.002676065
0.002674021
0.002673366
0.002676743
0.002676215
0.002674274
0.002673629
0.002706405
0.002704101
0.002700381
0.002702338
0.002706335
0.002703805
0.002699936
0.002739571
0.002740465
0.002743155
0.002744473
0.002739568
0.002740463
0.002743153
0.002725278
0.002723853
0.002719504
0.002721084
0.002725268
0.00272384
0.002719485
0.00275371
0.002755023
0.002753709
0.002749169
0.00274765
0.002749168
0.002747649
0.002701611
0.002698335
0.002702442
0.002697413
0.00270161
0.002698335
0.002702441
0.002682195
0.002680461
0.002677654
0.002678447
0.002682192
0.002680458
0.002677651
0.002699502
0.002703482
0.002700961
0.002704714
0.002699501
0.002703482
0.00270096
0.002704757
0.002710452
0.002708538
0.002706729
0.002704657
0.002710398
0.002708474
0.002703193
0.00270101
0.002696952
0.002699084
0.002703162
0.002700972
0.002696906
0.00269143
0.00269113
0.002688753
0.002693793
0.002691321
0.002691101
0.002688549
0.00270748
0.002711508
0.002712534
0.002708589
0.00270748
0.002711508
0.002712534
0.002703922
0.002698877
0.002702528
0.002700241
0.002703908
0.002698879
0.002702515
0.002702066
0.002698734
0.002695475
0.002697583
0.002702034
0.002698645
0.00269542
0.00270264
0.002700006
0.002696484
0.002699082
0.002702583
0.002699959
0.002696441
0.002719207
0.00271526
0.002712861
0.002717554
0.002719213
0.002715267
0.002712868
0.002660894
0.002658767
0.002658794
0.002660825
0.002660733
0.002658648
0.002658664
0.002657161
0.00265838
0.002661277
0.002660981
0.002658298
0.002661216
0.00266093
0.002669119
0.002669324
0.002667019
0.002666236
0.002668822
0.002669114
0.002666866
0.002648045
0.002648325
0.002645119
0.002645362
0.002648048
0.002648327
0.002645124
0.002664763
0.002662447
0.002662818
0.002664265
0.00266465
0.00266293
0.002662734
0.002696247
0.002692739
0.002693662
0.002696573
0.002696172
0.002692688
0.002693627
0.002668715
0.002668259
0.002664627
0.002664766
0.002668692
0.002668241
0.002664599
0.002718215
0.002721047
0.002719194
0.002716146
0.002718201
0.002721036
0.00271918
0.00269615
0.002693852
0.002696131
0.002698331
0.002696052
0.002693784
0.00269608
0.002656572
0.002654362
0.002654484
0.00265655
0.002656516
0.002654321
0.002654438
0.002646967
0.002644064
0.002644463
0.002647487
0.002646999
0.002644091
0.002644489
0.002720022
0.002727029
0.002721901
0.002728652
0.002720052
0.002726996
0.002721891
0.002738091
0.002740543
0.00273552
0.002733
0.002738091
0.002740543
0.00273552
0.002679177
0.002682326
0.002679386
0.002682415
0.002679287
0.002682519
0.002679619
0.002627647
0.002629501
0.002629431
0.002633543
0.002631147
0.002633559
0.002631111
0.002679884
0.002678386
0.002675709
0.002677903
0.002679869
0.002678315
0.002675783
0.002655518
0.002652325
0.002652322
0.002654061
0.002651478
0.00265401
0.002651493
0.002646135
0.00264938
0.00264615
0.002645733
0.002648693
0.002645733
0.002648693
0.002643032
0.002646264
0.002646296
0.002644351
0.002646777
0.002644204
0.002646808
0.002649098
0.002651373
0.002649644
0.00265173
0.002649265
0.002651599
0.002649407
0.002653846
0.002650924
0.00265101
0.002653521
0.002653898
0.002650935
0.002651024
0.002766894
0.002766935
0.002766894
0.002760202
0.002760587
0.002760202
0.002760587
0.002638606
0.002638965
0.002641963
0.002641708
0.002638583
0.002638953
0.002641965
0.002696396
0.002702759
0.002696859
0.002705733
0.002700265
0.002706479
0.002700366
0.002706685
0.002701635
0.002705291
0.002703061
0.002706663
0.002701614
0.002705274
0.002734582
0.002734839
0.00273051
0.002730302
0.002734582
0.002734839
0.00273051
0.002688339
0.002692037
0.002687871
0.002691734
0.002695445
0.002691456
0.002695567
0.00274094
0.002738494
0.00274183
0.002737753
0.002740938
0.002738492
0.002741828
0.002679735
0.002682466
0.002680423
0.002682486
0.002679916
0.002682613
0.002680507
0.002717843
0.002713262
0.002713668
0.002717596
0.002717843
0.002713262
0.002713667
0.002681372
0.002684297
0.002681327
0.00268799
0.002684729
0.002687833
0.002684704
0.002703113
0.00270373
0.00269855
0.002698501
0.002703111
0.002703729
0.002698547
0.002676331
0.00267879
0.002676706
0.002679666
0.002681984
0.002679835
0.002682088
0.002702595
0.00269891
0.002701705
0.002699196
0.00270261
0.002698931
0.002701723
0.002717668
0.002717546
0.002712893
0.002712378
0.002717668
0.002717546
0.002712892
0.002647739
0.002644718
0.002644922
0.002647874
0.002647748
0.002644726
0.002644927
0.002683109
0.002686531
0.002683108
0.002684925
0.002681594
0.002684925
0.002681593
0.002639266
0.002642218
0.002639488
0.002642466
0.002639255
0.002642215
0.002639461
0.002676283
0.002679687
0.002676281
0.002674843
0.002678222
0.002674841
0.002678221
0.002660531
0.002655937
0.002660347
0.002655916
0.002660512
0.002655777
0.002660419
0.002640228
0.002643156
0.002640228
0.002642752
0.002639839
0.002642755
0.002639831
0.00267871
0.002678615
0.002682286
0.002682034
0.00267873
0.002678503
0.00268215
0.002650955
0.002653711
0.002650796
0.002654072
0.00265096
0.002653704
0.002650806
0.002641398
0.002638235
0.002637801
0.00264095
0.00264139
0.002638186
0.002637723
0.002654066
0.002655719
0.002653083
0.002654082
0.002656123
0.002653754
0.002656092
0.002679647
0.002679599
0.002682495
0.002682423
0.002679665
0.002679654
0.002682536
0.002728605
0.002722232
0.00272466
0.002726842
0.002728595
0.002722217
0.002724645
0.002650323
0.002649611
0.002651906
0.002652894
0.002650341
0.002649637
0.002651925
0.002704112
0.002707705
0.002704112
0.002706138
0.002702496
0.002706138
0.002702495
0.002738144
0.002730714
0.002736786
0.002731182
0.002738142
0.002730711
0.002736785
0.002737461
0.002729224
0.002734382
0.002731824
0.002737452
0.002729211
0.002734373
0.002624774
0.002620011
0.002619999
0.002621725
0.002624944
0.00262172
0.002624943
0.002739432
0.002733722
0.002739049
0.002735409
0.002739423
0.002733712
0.002739039
0.002716119
0.002720712
0.00271499
0.002720386
0.002716127
0.002720717
0.002714998
0.002738724
0.002733488
0.002739037
0.002732324
0.002738718
0.002733481
0.002739031
0.00263634
0.00263664
0.00263341
0.002633789
0.002636312
0.002636641
0.002633417
0.002738781
0.002732161
0.00273854
0.002733128
0.002738776
0.002732152
0.002738535
0.002672661
0.002674575
0.002672813
0.002677652
0.002675903
0.002677981
0.002676113
0.00263453
0.002637275
0.002634509
0.00263416
0.002636954
0.002634161
0.002636966
0.002655898
0.002654992
0.002657143
0.002656002
0.002654982
0.00265709
0.002656003
0.002733901
0.002733693
0.002738935
0.002738858
0.002733895
0.002733687
0.002738931
0.002699712
0.002703297
0.002699749
0.002703374
0.002699681
0.002703269
0.00269973
0.002700328
0.002703841
0.002700118
0.00270405
0.002700243
0.002703825
0.00270007
0.002704318
0.002699414
0.002703865
0.002700991
0.002704268
0.002699339
0.002703811
0.002700292
0.002704055
0.002700379
0.002704229
0.002700231
0.002703998
0.002700304
0.002700572
0.002704655
0.002700474
0.002704891
0.002700527
0.002704615
0.002700419
0.002700962
0.002705143
0.002700735
0.002705314
0.002700936
0.00270512
0.0027007
0.002702608
0.002700493
0.00269837
0.002700534
0.002702502
0.002700478
0.002698263
0.00267222
0.002672045
0.002675155
0.00267491
0.00267222
0.002672024
0.002675213
0.002697038
0.002693384
0.002692984
0.002697349
0.002697014
0.002693364
0.002692949
0.002695396
0.002691151
0.002692892
0.002693494
0.002695269
0.002691183
0.002692803
0.002720418
0.002721514
0.002719693
0.002718238
0.002720402
0.0027215
0.002719677
0.002701457
0.00270552
0.002701201
0.002705694
0.002701453
0.002705511
0.002701185
0.002669096
0.002666102
0.002669061
0.002664416
0.002668366
0.002665523
0.002668572
0.002748707
0.002747766
0.002754474
0.002753834
0.002748707
0.002747766
0.002754474
0.002686634
0.002687417
0.00268477
0.002689006
0.002686354
0.002687189
0.002684703
0.002708026
0.002709676
0.002712271
0.002710658
0.002707997
0.002709645
0.002712246
0.00262685
0.002630642
0.002630844
0.002631883
0.002629398
0.002632038
0.002629403
0.002767146
0.002767048
0.002767146
0.002760617
0.002759855
0.002760616
0.002759855
0.00267187
0.002675604
0.002676753
0.002672591
0.002671859
0.002675596
0.002676745
0.002719224
0.002721275
0.002716992
0.0027242
0.002719224
0.002721275
0.002716991
0.002684506
0.002688262
0.002685023
0.002687853
0.002684536
0.002688285
0.002685057
0.00262986
0.002633357
0.002629801
0.002635254
0.002636329
0.002635238
0.002636344
0.002733647
0.002737277
0.002733443
0.002737811
0.002733642
0.002737274
0.002733438
0.002750156
0.002753367
0.002751205
0.002754895
0.002750155
0.002753366
0.002751205
0.002669982
0.002671494
0.002670056
0.002674523
0.002673264
0.002674613
0.002673431
0.002697614
0.002693862
0.002693685
0.002697781
0.002697614
0.002693875
0.002693681
0.002658127
0.002660778
0.002661368
0.002658792
0.00265812
0.002660757
0.002661321
0.002658815
0.002660724
0.002658667
0.002660932
0.002658691
0.002660815
0.002658504
0.002682568
0.002679021
0.002678911
0.002682606
0.002682476
0.002678863
0.002678771
0.002748979
0.002749379
0.002748984
0.002742492
0.002742656
0.002742496
0.002742661
0.002641584
0.002644904
0.002645528
0.002647567
0.002644115
0.002647568
0.002643992
0.002683058
0.00268422
0.002681733
0.002685841
0.002683306
0.002684668
0.002682133
0.0026644
0.002666684
0.002668086
0.002663667
0.002664362
0.00266667
0.002668056
0.002746358
0.002749123
0.00275296
0.002754542
0.002746354
0.002749119
0.002752957
0.002658397
0.002660761
0.002658398
0.002661318
0.002658737
0.002661343
0.002658647
0.002666373
0.002664125
0.002667164
0.002663555
0.002666352
0.002664096
0.002667139
0.00268865
0.002692462
0.002692675
0.002687811
0.002688647
0.00269246
0.002692673
0.002668639
0.00266921
0.002668569
0.002671497
0.002672453
0.002671403
0.002672321
0.002659385
0.002655755
0.002657433
0.002657001
0.002659365
0.002655761
0.002657423
0.002763728
0.002757911
0.0027562
0.002752706
0.002757911
0.0027562
0.002752706
0.002713602
0.002715823
0.002713912
0.002711459
0.002713577
0.002715804
0.002713889
0.002680836
0.002683607
0.002684744
0.002679559
0.002680831
0.002683604
0.002684741
0.002686173
0.00269004
0.002689861
0.002686371
0.002686118
0.002690053
0.002689844
0.002663156
0.002662968
0.002664885
0.00266501
0.002662954
0.002662782
0.002664669
0.002746424
0.002746947
0.002746431
0.002739882
0.002739057
0.00273987
0.002739057
0.002719054
0.002716575
0.002720633
0.002718203
0.002719038
0.002716557
0.002720621
0.002664169
0.002664229
0.002666454
0.00266658
0.002660624
0.002666479
0.00266067
0.002677397
0.002675322
0.002678174
0.002674545
0.002677576
0.0026754
0.002678428
0.002689858
0.002694139
0.002692194
0.002691653
0.002689597
0.002694019
0.002691884
0.002706477
0.002711518
0.002710792
0.002707698
0.002706455
0.002711497
0.00271077
0.002694221
0.002693734
0.002691438
0.002697246
0.002694231
0.002693715
0.002691415
0.002712291
0.002714468
0.002714892
0.002711813
0.002712267
0.002714447
0.002714871
0.002666377
0.002667575
0.002666606
0.002670505
0.002669496
0.002670567
0.002669582
0.002746682
0.002753176
0.002748235
0.00275436
0.00274668
0.002753175
0.002748232
0.002695564
0.002695654
0.002692207
0.002692014
0.002695579
0.002695672
0.00269223
0.002692419
0.002690515
0.002692732
0.002695329
0.002692426
0.002690573
0.002692772
0.002689974
0.002694466
0.002694283
0.002690304
0.002689962
0.00269446
0.002694277
0.002678227
0.002680082
0.002676253
0.002674027
0.002678217
0.002680073
0.00267624
0.002687177
0.002689286
0.002689141
0.002691516