/*--------------------------------*- C++ -*----------------------------------*\
| =========                 |                                                 |
| \\      /  F ield         | OpenFOAM: The Open Source CFD Toolbox           |
|  \\    /   O peration     | Version:  1912                                  |
|   \\  /    A nd           | Website:  www.openfoam.com                      |
|    \\/     M anipulation  |                                                 |
\*---------------------------------------------------------------------------*/
FoamFile
{
    version     2.0;
    format      ascii;
    class       volScalarField;
    location    "40000/fluid";
    object      epsilonm;
}
// * * * * * * * * * * * * * * * * * * * * * * * * * * * * * * * * * * * * * //

dimensions      [0 2 -3 0 0 0 0];


internalField   nonuniform List<scalar> 
4960
(
4.46322e-06
0.0001759845
5.5584e-06
1.018565e-07
0.07007047
0.0007603758
1.557642e-06
0.06791403
0.0002328757
5.428017e-05
0.0001250832
0.2868162
2.938148e-07
0.002097052
0.07902174
0.05477095
0.05444176
2.425464e-06
1.955775e-05
0.06463159
0.06912847
4.974665e-06
7.880289e-05
5.31565e-06
0.05682765
3.030818e-05
0.04953107
6.434403e-08
0.07181913
0.007286841
0.1219244
0.1041632
0.07965017
0.0213612
0.01481005
7.089116e-05
5.224699e-08
0.001863344
0.007198906
2.085199e-05
0.0001464875
0.0001157625
1.197919e-06
0.0435716
0.1146769
0.006713951
5.115413e-05
0.07610876
3.500545e-05
0.06734789
0.01215425
8.850939e-07
0.0005070941
0.0002065376
1.369175e-05
0.002403329
1.987556e-05
1.469512e-05
9.995701e-05
5.326756e-06
0.01610785
1.417922e-08
5.242141e-05
6.053846e-05
0.1630294
0.01026031
0.1353359
2.701761e-07
0.2766911
3.74503e-08
2.739815e-05
6.208914e-06
6.161712e-06
0.003582801
0.005212714
0.03509366
1.207726e-08
4.264586e-05
0.001307814
0.5407614
2.021906e-06
3.668165e-05
0.03275123
4.011687e-05
0.001130717
1.25098e-05
0.01176409
0.00463104
0.01088537
0.003928956
0.004373138
0.005368022
2.290851e-05
7.451135e-05
5.561521e-06
0.2438669
0.00838017
5.346602e-05
0.002061866
0.0002148847
0.002434873
0.003668049
3.966437e-08
0.003122745
0.000158112
6.366206e-05
2.978228e-06
1.587388e-07
1.354562e-06
8.727797e-06
0.0006119629
7.812384e-05
0.02058563
0.00183955
0.008470344
2.254431e-05
0.001757834
0.001674315
0.001502968
0.000155142
9.64929e-06
3.623799e-05
2.304884e-08
0.06261662
0.01760044
1.731263e-05
0.07551257
0.01700511
1.02076e-08
0.0003098936
5.050475e-09
5.905323e-05
6.424704e-05
8.036951e-05
0.006208845
0.003725278
0.02278118
8.012479e-05
0.003429153
0.004021383
0.001808308
1.024954e-05
0.21036
0.0006037614
0.1855088
0.1484131
0.1937109
0.004131074
0.000157199
0.0002864726
0.009599219
0.2203492
0.1243236
0.008950491
2.246516e-05
0.03130398
0.1967285
0.07174244
0.1575208
0.1739621
0.3342257
0.3941942
0.1387733
2.636628e-05
0.1284423
0.08214819
0.002184425
4.160193e-05
0.07137847
1.897679e-06
0.03147194
4.310158e-05
0.0653606
2.215283e-05
0.06510095
6.36613e-05
3.297443e-05
0.1264027
9.996037e-05
0.1504358
9.996854e-05
0.1077474
0.1735877
0.02949137
0.1166438
0.1119425
0.3583214
0.01534924
1.406356e-05
0.1028942
9.99564e-05
7.005489e-07
2.290792e-06
0.1957765
1.261592e-06
3.42246e-06
5.758522e-06
0.1662213
3.617572e-06
0.0682016
0.1622042
0.06004678
3.319597e-07
0.002085519
0.002050778
0.002129172
0.0002508178
0.0002362812
0.0002355674
0.004587046
0.0658275
0.001395154
0.01058073
6.014427e-05
0.0002246572
0.1618434
2.356801e-05
0.02826636
0.0003833451
0.3908494
6.010476e-07
7.995993e-05
1.381048e-05
0.0005950176
0.2305826
2.179134e-07
5.568801e-05
0.07166914
0.001284317
0.01220382
0.2015177
0.04422417
1.254738e-05
0.4366688
0.03196813
0.001449871
1.666166e-07
0.3464986
0.001179648
5.761459e-05
0.06607436
0.03500482
1.201941e-05
0.0004757212
5.78043e-05
0.01657456
0.2051595
0.0002383709
8.513806e-05
0.3509734
0.07086287
0.01887988
0.00114371
0.005752303
0.0002461792
0.06484036
5.047942e-07
0.0004109363
0.001307325
1.858801e-05
6.482983e-05
0.01280114
0.1995132
0.3226479
4.713545e-05
2.007758e-06
1.533135e-05
0.0247367
9.995627e-05
0.1042291
0.2165405
0.01619929
0.0006704987
0.08073295
0.06593517
0.003378358
4.056551e-06
0.001639714
0.0004691127
0.05477777
0.457681
0.1406808
0.5713505
0.005487413
0.001082497
1.210339e-05
0.0001766543
0.04679598
2.12274e-05
0.0002578126
3.213385e-05
0.2068976
0.18378
0.0006368443
0.006016022
4.586116e-05
0.1137279
0.1240348
0.1892327
9.105771e-06
0.1283804
0.223071
0.154631
3.226984e-05
0.0001000623
0.06979742
0.1555908
8.904409e-06
7.705789e-05
6.694218e-06
0.1503143
0.002845812
0.001323815
0.1356179
0.1104724
0.003168399
6.704066e-06
0.001893317
0.01494021
0.04505561
0.06193365
0.02553135
0.042518
0.06152323
0.04134609
0.03179521
0.04207428
0.04851003
0.0736416
0.05483658
5.561585e-05
8.642722e-06
1.372253e-05
5.33359e-05
3.639192e-06
6.452553e-06
2.825482e-05
8.792649e-06
7.857681e-06
0.06968358
0.08333542
0.08595576
0.1649426
0.0001040292
0.2380501
0.2083112
0.2232158
1.762732e-06
2.007064e-06
9.14688e-07
1.293255e-05
0.1132697
4.545833e-08
7.06479e-07
9.995908e-05
0.0001323902
0.0004805008
0.008849962
3.922558e-05
0.1445655
4.858657e-05
5.014201e-05
0.01340199
0.0007390713
0.3237363
0.5349408
0.0004948295
0.247226
0.09596571
3.561837e-05
0.03663549
0.009371727
5.681887e-05
3.399832e-05
0.0005415419
0.0004786878
0.6588328
0.03169215
0.2225342
0.06906542
4.432542e-06
0.2434452
1.225223e-07
0.1226525
0.1933393
6.390378e-05
6.427519e-05
0.0002752986
8.0815e-05
0.0004836024
1.281e-06
0.06959881
0.04308372
0.06999627
0.3512109
2.051877e-06
0.009603894
0.0006850828
0.02062913
7.758157e-05
0.0166289
6.931388e-05
9.075824e-06
0.04671639
0.01561984
0.03405172
7.899729e-05
0.1152051
0.3746162
0.1313579
0.0108734
0.2402996
4.826603e-06
0.2328318
9.123837e-05
0.08826017
0.481664
3.298052e-05
8.746595e-07
9.996046e-05
1.817618e-05
0.6870682
6.919463e-05
0.0002722859
4.395879e-07
0.0006314694
0.1378216
1.920454e-05
0.402277
0.02295824
5.087337e-05
0.05290686
9.995765e-05
5.996464e-06
0.0001253251
0.01536642
0.05790951
3.029889e-07
1.701916e-05
0.03460448
5.883882e-05
2.657896e-06
0.04410795
0.2618435
0.03291023
0.2175282
1.497674e-05
0.04420052
4.492957e-05
0.001205142
0.0001614422
5.512435e-05
4.637742e-06
0.2313606
0.0006990702
9.996106e-05
0.3155529
7.271372e-05
6.766724e-05
4.546143e-05
0.04849582
5.730908e-05
0.2575256
1.945245e-05
0.4666315
3.80295e-07
4.569294e-06
0.0001217176
0.1771986
0.007902892
0.1095703
0.06771898
2.322345e-07
1.830645e-05
0.04788127
0.03134244
0.01119119
3.383223e-07
2.58284e-06
4.950689e-05
0.2602685
8.976761e-07
1.017074e-05
2.433206e-07
6.741866e-06
0.1271451
0.0891794
2.065486e-05
0.2290645
9.996227e-05
7.902308e-05
3.541669e-05
0.1614913
2.636804e-05
3.145016e-06
0.2046323
0.03933817
2.483187e-05
4.2723e-05
0.06382334
2.076341e-05
0.1032884
0.2178152
0.1162886
0.1049167
1.92632e-05
0.0249861
0.0001008696
0.1995995
3.618603e-05
0.004311982
3.367689e-05
0.1813483
7.432434e-06
0.1798218
4.019242e-07
0.1306042
0.1249731
0.2360327
1.166797e-05
1.278486e-05
0.1723499
3.194564e-05
0.4999114
0.1346962
0.0636772
3.89986e-05
0.05168934
5.672399e-06
5.740176e-06
0.000276283
3.708415e-06
2.863307e-05
0.2298975
0.7629647
1.217951e-05
0.0003878578
0.0001495392
0.004392975
8.779617e-05
8.081953e-06
0.108399
0.2051736
1.121443e-05
0.08347317
0.1747897
0.1700642
0.1033094
0.0002719752
0.2579491
0.06195236
0.08775154
0.04107688
9.996255e-05
7.497844e-05
4.694448e-07
0.003143366
0.05239947
0.05644226
0.0003494237
9.174253e-05
0.0001007003
0.02641934
0.08951287
0.01585052
0.02804872
4.640699e-05
9.441524e-07
1.307532e-06
4.453183e-07
2.696183e-05
0.07739822
0.09289933
1.804586e-05
0.1229805
1.932892e-07
2.928516e-06
0.2186341
7.0413e-06
0.1114597
0.03289846
1.550784e-05
5.745181e-06
3.837506e-06
0.246783
0.0001025057
8.330789e-05
0.2086702
8.831511e-05
0.000147499
3.78122e-05
0.0001136692
0.1267355
2.577672e-05
0.19879
0.2933759
0.08057665
0.07347753
0.1359437
3.570697e-05
9.996566e-05
6.809232e-07
8.732461e-06
0.07119749
7.349574e-05
4.437087e-06
1.012063e-06
0.09193853
1.96705e-07
0.05668915
0.055464
0.1182047
0.1168276
8.329107e-06
0.08635048
0.1014833
0.06943012
8.016503e-06
9.258895e-05
8.385952e-05
3.630946e-06
4.455348e-06
3.618407e-06
4.567442e-06
3.644098e-06
4.562384e-06
3.638687e-06
5.933449e-05
7.234978e-05
0.0001508399
0.0002481881
8.064844e-05
9.869999e-05
0.0002124546
6.223272e-06
8.595107e-06
3.979637e-06
5.424372e-06
6.161537e-06
8.561738e-06
3.833783e-06
8.10709e-08
1.017669e-07
8.119495e-08
8.465234e-08
1.054368e-07
8.450932e-08
1.05012e-07
0.06283263
0.06286302
0.07043859
0.08481128
0.08552729
0.08384897
0.08949244
0.0002918385
0.0006915216
0.000259721
0.0008454164
0.000320097
0.0007453495
0.0002846652
1.284018e-06
5.301527e-06
6.848697e-06
1.376943e-06
1.224975e-06
4.845827e-06
5.874615e-06
0.08696045
0.07823145
0.07527928
0.0913593
0.1247685
0.1110111
0.1100112
0.0001573608
0.0003327983
0.000103519
0.0003471585
0.0002286911
0.0005019176
0.0001566491
4.265381e-05
5.59854e-05
4.281832e-05
5.428618e-05
4.265636e-05
5.598931e-05
4.282226e-05
7.124282e-05
0.0001354082
4.669721e-05
0.0001509331
8.614912e-05
0.0001664614
5.35746e-05
0.2648324
0.279832
0.2734217
0.2773457
0.2584248
0.2735905
0.2660159
2.932008e-07
2.760456e-07
2.611817e-07
3.138352e-07
2.763159e-07
2.606226e-07
3.136967e-07
0.002025462
0.005894961
0.005181955
0.001734838
0.001718765
0.004876887
0.004412682
0.04625272
0.08781479
0.04139582
0.09113621
0.04929851
0.1016776
0.04255973
0.03674199
0.0374244
0.05314715
0.07969088
0.0580963
0.05797603
0.07650265
0.03729872
0.03886319
0.05312011
0.0799105
0.05780473
0.06149398
0.07642332
2.940325e-06
2.76459e-06
2.307144e-06
2.423957e-06
2.938106e-06
2.763003e-06
2.30806e-06
1.77391e-05
1.633091e-05
2.112883e-05
1.953528e-05
1.77141e-05
1.631461e-05
2.106616e-05
0.07661641
0.07810728
0.06327301
0.07660879
0.09506511
0.09764724
0.07529383
0.07458335
0.1091793
0.1142797
0.06785647
0.07055607
0.1086208
0.1115481
4.543443e-06
4.415198e-06
4.063459e-06
4.985616e-06
4.555431e-06
4.42977e-06
4.074581e-06
6.950016e-05
7.859018e-05
6.960013e-05
7.880294e-05
6.950017e-05
7.859019e-05
6.960018e-05
1.434456e-06
1.688092e-06
4.89167e-06
4.819929e-06
1.510084e-06
1.697147e-06
4.659686e-06
0.04452516
0.04124766
0.06042414
0.0848902
0.07477501
0.06680344
0.09272719
3.45692e-05
3.128944e-05
3.550961e-05
3.090558e-05
3.438558e-05
3.122818e-05
3.539511e-05
0.03640671
0.04796545
0.05748224
0.0683599
0.05079839
0.07089381
0.087917
5.071247e-08
6.444359e-08
5.065619e-08
6.761124e-08
5.390347e-08
6.785788e-08
5.466873e-08
0.04900794
0.05514003
0.065365
0.09395919
0.07966686
0.07659144
0.09456672
0.01169171
0.01484009
0.009309699
0.01044056
0.0164544
0.02284363
0.0138535
0.1108905
0.1222478
0.1088463
0.1543383
0.1238723
0.152726
0.127846
0.07218938
0.09722545
0.07000302
0.1121417
0.08194245
0.102561
0.08477563
0.06322169
0.06249404
0.07980844
0.09363297
0.0766311
0.07460598
0.09086868
0.02796119
0.03743563
0.02826174
0.02899256
0.03692204
0.04800627
0.03777902
0.01026601
0.01739264
0.02381635
0.01769555
0.01154462
0.01986056
0.02819008
7.115845e-05
7.970361e-05
7.951921e-05
7.088409e-05
7.115581e-05
7.969647e-05
7.950849e-05
8.283239e-08
2.625969e-07
4.054571e-07
5.354268e-08
8.603638e-08
2.621659e-07
4.111033e-07
0.002184428
0.004701307
0.006087015
0.001482407
0.001767169
0.003771997
0.005151
0.01000649
0.01328897
0.01731895
0.0104519
0.01497228
0.01826488
0.02422897
4.790726e-06
1.235658e-05
1.172359e-05
1.807791e-05
4.137494e-06
1.061934e-05
1.024754e-05
3.352022e-05
6.884923e-05
8.72219e-05
0.0002021392
4.216306e-05
8.886094e-05
0.0001178662
0.0001290259
3.007965e-05
4.117906e-05
0.0001363259
0.0001491739
3.16304e-05
4.278236e-05
1.396921e-06
1.422098e-06
1.190177e-06
1.197139e-06
1.398271e-06
1.421244e-06
1.192208e-06
0.04498006
0.07768089
0.07534108
0.03460651
0.03538057
0.0650593
0.06197122
0.05296104
0.09835814
0.0648843
0.1333801
0.06097834
0.1164131
0.07987312
0.01068156
0.01568327
0.02123764
0.005387289
0.008639746
0.01299901
0.01766744
4.465423e-05
4.586649e-05
5.033148e-05
5.125436e-05
4.466053e-05
4.595871e-05
5.033155e-05
0.06220784
0.07267521
0.07304746
0.08748465
0.08261682
0.08870459
0.08574563
3.682613e-05
3.959418e-05
4.102012e-05
3.495836e-05
3.683899e-05
3.951353e-05
4.107572e-05
0.03372486
0.03824067
0.05723317
0.08036249
0.03540977
0.0390649
0.06485816
0.01691989
0.01725255
0.01111472
0.0184023
0.02722659
0.02690791
0.01744462
9.728806e-07
2.0943e-06
2.552354e-06
8.277095e-07
1.041521e-06
2.074716e-06
2.757863e-06
0.00144241
0.0007043403
0.001044883
0.0007651406
0.00222755
0.001078624
0.001584043
8.789152e-05
0.000119857
0.0002429582
0.0002923707
0.0001205644
0.0001659735
0.0003456121
1.557936e-05
1.432862e-05
1.250046e-05
1.367937e-05
1.556004e-05
1.431759e-05
1.250116e-05
0.001893614
0.0009620174
0.001266049
0.003815615
0.002979177
0.001483939
0.001986574
1.551002e-05
1.752438e-05
1.749021e-05
1.990075e-05
1.553126e-05
1.753472e-05
1.752811e-05
8.335821e-06
1.139939e-05
1.614744e-05
1.467949e-05
8.316443e-06
1.137973e-05
1.613133e-05
9.994138e-05
9.996307e-05
9.996311e-05
8.957177e-05
8.94405e-05
8.952252e-05
8.941098e-05
1.137256e-05
1.274719e-05
6.548105e-06
5.322327e-06
1.136248e-05
1.272079e-05
6.527223e-06
0.02692144
0.02517945
0.0166502
0.01772392
0.02925857
0.02726545
0.01845191
1.995827e-08
5.988545e-08
3.460026e-08
1.474825e-08
2.156888e-08
6.43269e-08
3.541535e-08
5.111143e-05
5.991566e-05
5.883057e-05
5.24214e-05
5.111143e-05
5.991566e-05
5.883057e-05
4.923884e-05
6.053846e-05
4.923884e-05
4.856266e-05
5.769945e-05
4.856266e-05
5.769945e-05
0.150229
0.1798133
0.1616852
0.2699876
0.2827838
0.2892846
0.2906242
0.01768446
0.01699822
0.01046799
0.01648118
0.0254863
0.02762305
0.01695822
0.1433724
0.07287742
0.07264437
0.1505742
0.1510387
0.09145299
0.09229185
3.032915e-07
1.343544e-06
1.051033e-06
3.183859e-07
4.061064e-07
1.725899e-06
1.285116e-06
0.2520506
0.2628008
0.2675205
0.2792745
0.2544216
0.2696786
0.2645024
2.812173e-08
7.613486e-08
8.292496e-08
4.44503e-08
3.294374e-08
8.769593e-08
9.969931e-08
3.087278e-05
3.288895e-05
2.966806e-05
2.73828e-05
3.085777e-05
3.283106e-05
2.962843e-05
1.67602e-05
1.082755e-05
9.64414e-06
7.368989e-06
2.315486e-05
1.415394e-05
1.271727e-05
4.482154e-06
9.173737e-06
6.597641e-06
6.187979e-06
4.485532e-06
9.181058e-06
6.598682e-06
0.005267523
0.009019052
0.006337499
0.004240972
0.006987522
0.01154208
0.007167682
0.006319166
0.009019354
0.007937423
0.007703663
0.009014656
0.01317086
0.01203892
0.03215677
0.04683821
0.04341517
0.05015801
0.05128274
0.06902275
0.06982421
8.153705e-09
1.220456e-08
8.315586e-09
1.048564e-08
1.455038e-08
1.081749e-08
1.468615e-08
4.216407e-05
4.860309e-05
4.794225e-05
4.246197e-05
4.210884e-05
4.838025e-05
4.793812e-05
0.000761279
0.0004323818
0.00235307
0.0009955855
0.0005755723
0.0003257887
0.001803066
0.4226969
0.2767396
0.1773212
0.2269415
0.3749575
0.1790413
0.2254652
1.640247e-06
1.943638e-06
1.681112e-06
2.020719e-06
1.641692e-06
1.944941e-06
1.680141e-06
2.455466e-05
2.849563e-05
4.318927e-05
3.32022e-05
2.513899e-05
2.932609e-05
3.87266e-05
0.03096657
0.0413864
0.04437913
0.04428026
0.04399565
0.05865736
0.05682785
3.253932e-05
4.011634e-05
3.25668e-05
3.306397e-05
3.991727e-05
3.306384e-05
3.991773e-05
0.0005567408
0.0004186594
0.0008610155
0.001754053
0.0008588463
0.000644032
0.001346744
4.082509e-06
6.142415e-06
1.83789e-05
1.689598e-05
5.21691e-06
8.133474e-06
2.544089e-05
0.01382285
0.01856682
0.01687208
0.0166347
0.01920793
0.02633014
0.02474662
0.004821441
0.008898578
0.010236
0.006405011
0.006807821
0.01235232
0.01364266
0.0160497
0.01517604
0.01005457
0.01571366
0.02426376
0.02377992
0.01482906
0.007245585
0.007395448
0.01268315
0.003800561
0.007022521
0.00781227
0.01346591
0.003126264
0.007249122
0.00558735
0.006513898
0.004835363
0.0107817
0.008868748
0.00310415
0.004013488
0.006493527
0.007652478
0.004646001
0.006027843
0.009804474
2.313884e-05
2.630215e-05
2.693607e-05
2.343282e-05
2.313734e-05
2.698364e-05
2.692717e-05
7.686793e-05
8.198848e-05
8.382777e-05
7.449816e-05
7.687281e-05
8.196415e-05
8.380788e-05
1.639882e-05
1.349321e-05
5.055324e-06
7.392149e-06
2.267626e-05
1.848924e-05
6.597621e-06
0.2317719
0.2370743
0.2345201
0.2438264
0.2296638
0.2398847
0.233515
0.01222037
0.03038973
0.02300636
0.008388271
0.0117301
0.03038224
0.02387002
5.3998e-05
6.089026e-05
6.125613e-05
5.346602e-05
5.399802e-05
6.089026e-05
6.125617e-05
0.003680036
0.00301002
0.001637595
0.003211007
0.006046412
0.00487485
0.002576985
0.0002147348
0.0006045998
0.0005955846
0.0001683903
0.0001659139
0.0004765909
0.0004589711
0.001883711
0.003540741
0.00446946
0.003834099
0.00295653
0.005630109
0.007121172
0.00441653
0.006298318
0.007117431
0.005686732
0.006702116
0.01011075
0.01111165
3.047155e-08
3.964092e-08
3.045136e-08
3.482487e-08
4.349351e-08
3.598236e-08
4.456413e-08
0.002542995
0.005294196
0.004479835
0.004922061
0.003995531
0.008453795
0.007226609
9.797804e-05
6.876325e-05
0.0001230589
0.0002353615
0.0001433373
0.0001000008
0.0001821292
6.07514e-05
6.689899e-05
6.987399e-05
6.366313e-05
6.073674e-05
6.68885e-05
6.990772e-05
2.445227e-06
2.969776e-06
2.431402e-06
2.464246e-06
2.99679e-06
2.461321e-06
2.992745e-06
1.274923e-07
1.584417e-07
1.272944e-07
1.576963e-07
1.314054e-07
1.576321e-07
1.308253e-07
1.11243e-06
1.350033e-06
1.105902e-06
1.167103e-06
1.3975e-06
1.165668e-06
1.395757e-06
1.174704e-05
2.850985e-05
3.670297e-05
1.090744e-05
1.465421e-05
3.763994e-05
4.859238e-05
0.001152734
0.0005051523
0.0009595003
0.0009471526
0.001785203
0.000778121
0.001486161
0.0001574733
5.661641e-05
0.0001140996
0.0001135168
0.0002336667
8.143735e-05
0.00016485
0.01845961
0.02941255
0.02724768
0.03300322
0.03008397
0.04798653
0.0439795
0.0009369198
0.001445523
0.0007230565
0.002872442
0.001442247
0.00225136
0.001110865
0.007334165
0.01357959
0.01180494
0.0138134
0.01226922
0.02184903
0.01968594
2.254264e-05
1.162853e-05
6.636787e-06
2.41199e-05
1.162415e-05
6.631659e-06
2.411879e-05
0.0009052456
0.0007197231
0.00134951
0.002621272
0.00137983
0.001109481
0.002052297
0.002162456
0.001071883
0.0007124522
0.002493306
0.003230061
0.001606427
0.001065187
0.002878988
0.002298791
0.001189302
0.002350702
0.004544883
0.003610388
0.001834223
0.0001038504
0.0002435276
0.000395343
0.0001193812
7.959703e-05
0.0001840033
0.0003007763
1.084269e-05
1.222478e-05
1.087435e-05
9.66397e-06
1.083913e-05
1.225091e-05
1.090418e-05
7.60283e-05
2.340547e-05
4.983458e-05
5.129699e-05
0.0001079469
3.182608e-05
6.951976e-05
1.697264e-08
2.305817e-08
1.703359e-08
2.637132e-08
1.973393e-08
2.687454e-08
1.991295e-08
0.07998713
0.0765473
0.06058811
0.07276042
0.08460551
0.08314736
0.07369362
0.02210138
0.02921567
0.03062467
0.02397228
0.03257769
0.0362355
0.0415039
1.404767e-05
1.723468e-05
1.398711e-05
1.820857e-05
1.502854e-05
1.820458e-05
1.502363e-05
0.07753987
0.1151704
0.1109039
0.07036469
0.07129753
0.1092579
0.1045261
0.01581606
0.02436443
0.02568407
0.02794085
0.02657888
0.0394887
0.04134434
1.675056e-08
2.202467e-08
1.552199e-08
1.079148e-08
1.681904e-08
2.194853e-08
1.55513e-08
0.0002269137
0.0004745849
0.0006436819
0.0004693411
0.0003363266
0.0007176419
0.00099092
8.401867e-08
5.238316e-09
7.482453e-08
7.158696e-09
2.965652e-08
7.625281e-09
2.788556e-08
5.806662e-05
6.558165e-05
6.469282e-05
5.911274e-05
5.80705e-05
6.555773e-05
6.468253e-05
6.549375e-05
6.98316e-05
7.011126e-05
6.556955e-05
6.472264e-05
6.930825e-05
7.33497e-05
7.295945e-05
7.216911e-05
8.090007e-05
8.033738e-05
7.291558e-05
7.212714e-05
8.084023e-05
0.01029895
0.005211311
0.00894741
0.01057362
0.01809226
0.008656353
0.01507524
0.002054236
0.002973314
0.005494883
0.005778203
0.00318823
0.00466985
0.008890021
0.02559707
0.03210948
0.03565121
0.03670024
0.04169734
0.05332986
0.05786372
7.16855e-05
7.140974e-05
7.988506e-05
8.002904e-05
7.171711e-05
7.141551e-05
7.987515e-05
0.001993955
0.004193594
0.002449741
0.004945462
0.002869499
0.005942331
0.003573311
0.00212082
0.003549975
0.005401989
0.005554463
0.002880972
0.004979077
0.007716578
0.0008863919
0.002117262
0.004033513
0.001788583
0.0008871538
0.002314089
0.004344782
5.130889e-06
8.789368e-06
2.101211e-05
8.840178e-06
5.122338e-06
8.008471e-06
1.697357e-05
0.2149249
0.2186708
0.2146667
0.2127161
0.2134523
0.2155364
0.2144341
0.0005998083
0.0006093169
0.0002777324
0.0002761722
0.0006012879
0.0002558924
0.0002593837
0.1624684
0.1832925
0.1904874
0.1616272
0.1471268
0.1691474
0.1772335
0.1320106
0.1470697
0.1329853
0.1488857
0.1328435
0.1471796
0.133907
0.2036166
0.1852527
0.1880743
0.1777512
0.1809166
0.1795584
0.1779915
0.004489259
0.007779613
0.006618653
0.005822064
0.006288797
0.01100128
0.009481842
0.0001125808
0.0001183692
0.0001594407
0.0001491255
0.0001096417
0.0001151277
0.0001520824
0.000136608
0.0001044102
0.000213962
0.0004339699
0.0002011941
0.0001531795
0.0003217488
0.01510491
0.01680581
0.01115159
0.01581366
0.02452954
0.02811782
0.0185443
0.2182676
0.2205317
0.2223249
0.2164002
0.2157992
0.2172947
0.2183483
0.1123445
0.1164028
0.12654
0.1259015
0.1132458
0.1160894
0.1279421
0.02058528
0.01699323
0.01053719
0.01248988
0.02848662
0.02389234
0.01517852
1.975187e-05
2.320458e-05
2.562027e-05
2.246593e-05
1.975674e-05
2.320536e-05
2.562273e-05
0.04155917
0.0312182
0.04078828
0.0523174
0.06935336
0.05259044
0.06830533
0.1895776
0.1959202
0.1895672
0.2957786
0.2931
0.2974204
0.2959742
0.05539495
0.06355654
0.07999854
0.06519077
0.05022057
0.06097531
0.07735252
0.1662288
0.1678385
0.1772951
0.1740818
0.1755937
0.1732766
0.1751625
0.1743963
0.177683
0.1759461
0.1798262
0.1785878
0.1815603
0.1787743
0.3246658
0.3568415
0.3502313
0.3025699
0.2966258
0.2933749
0.2919051
0.3690429
0.4134392
0.3740121
0.278954
0.2899977
0.2823928
0.2880146
0.1091574
0.1277764
0.1472524
0.1401391
0.1114762
0.1282249
0.1474189
2.155256e-05
2.637424e-05
2.140101e-05
2.233039e-05
2.713595e-05
2.232789e-05
2.71306e-05
0.1285305
0.1279017
0.127544
0.1290651
0.1279537
0.1281417
0.1282208
0.07690729
0.0789019
0.07589941
0.0726065
0.0696345
0.102442
0.105023
0.001227622
0.002764516
0.001573646
0.003295205
0.001807803
0.004088117
0.002281751
4.094246e-05
4.696251e-05
4.743986e-05
4.160162e-05
4.094261e-05
4.69625e-05
4.743976e-05
0.0662452
0.07346516
0.07145053
0.06871202
0.06833925
0.08896459
0.09112396
5.332996e-06
5.003756e-07
1.986014e-06
1.89538e-06
5.328942e-06
4.994653e-07
1.983029e-06
0.04059328
0.03237027
0.04003568
0.05052621
0.06516023
0.0492779
0.06037041
4.912476e-05
4.367683e-05
4.944502e-05
4.286364e-05
4.880003e-05
4.364031e-05
4.940836e-05
0.06474577
0.07004628
0.0696998
0.07015621
0.07284503
0.09051687
0.09422397
2.130938e-05
2.424747e-05
2.569604e-05
2.215002e-05
2.132214e-05
2.426221e-05
2.567909e-05
0.06601411
0.06954481
0.06970656
0.08233365
0.07682624
0.09895053
0.09857339
2.621282e-05
7.839741e-05
4.117909e-05
5.119782e-05
2.21357e-05
6.156641e-05
3.318112e-05
3.160963e-05
3.715712e-05
3.777333e-05
3.295583e-05
3.118989e-05
3.646105e-05
3.774102e-05
0.1258251
0.1267808
0.1273565
0.1270434
0.1264697
0.1276615
0.1281395
9.99463e-05
9.9968e-05
9.997063e-05
9.990025e-05
9.993542e-05
9.986768e-05
9.987861e-05
0.1333759
0.1329654
0.1549753
0.1519575
0.1346011
0.1341596
0.1576778
9.997029e-05
9.997883e-05
0.0001000064
0.0001001127
9.994106e-05
0.0001000946
9.991205e-05
0.02622483
0.009684913
0.004056053
0.1181184
0.03112548
0.01122676
0.004533166
0.1676016
0.1749182
0.1688506
0.1828862
0.1877592
0.1845247
0.1892475
0.03969088
0.0394253
0.02919043
0.04462519
0.0616054
0.06426102
0.04740022
0.1250913
0.1207411
0.1262725
0.1200041
0.1258467
0.1204604
0.1278317
0.1270808
0.1232856
0.1056216
0.1102761
0.1266251
0.1223445
0.1050021
0.3764509
0.400899
0.4050843
0.2677689
0.261042
0.2710821
0.2616674
0.03617724
0.04010968
0.01861919
0.01418927
0.03433545
0.03705522
0.01671017
9.132186e-06
3.610582e-05
2.05806e-05
1.632543e-05
1.007808e-05
4.309646e-05
2.334972e-05
0.1202224
0.1049102
0.0837468
0.1043527
0.1218747
0.10628
0.08559461
9.99405e-05
9.996355e-05
9.996355e-05
8.978993e-05
9.0066e-05
8.976316e-05
9.001419e-05
6.15436e-07
7.915087e-07
7.119032e-07
6.168174e-07
6.08789e-07
7.47246e-07
7.069985e-07
6.401448e-07
3.223153e-06
9.19449e-07
2.050685e-06
5.613217e-07
2.732955e-06
8.172158e-07
0.1952086
0.2162345
0.2160898
0.1997202
0.2051217
0.2001921
0.2057993
5.042454e-07
1.713518e-06
5.676452e-07
1.425569e-06
4.896393e-07
1.762583e-06
5.141256e-07
4.543594e-06
3.960506e-06
5.005039e-06
3.441359e-06
5.050285e-06
3.963271e-06
5.004023e-06
1.255351e-06
4.931255e-06
1.414999e-06
6.255529e-06
1.26508e-06
5.145694e-06
1.408066e-06
0.1344046
0.1611639
0.1370012
0.1679839
0.1360886
0.1634479
0.1388977
5.990392e-07
4.74285e-06
8.410697e-07
4.061026e-06
7.579733e-07
5.216916e-06
9.303272e-07
0.07128158
0.07004334
0.0705112
0.08963459
0.09195919
0.09841953
0.09559195
0.159664
0.1628661
0.1602868
0.2019288
0.1939296
0.2027694
0.1954682
0.06598179
0.111151
0.02961261
0.07193195
0.1151459
0.0329315
0.0763227
1.855036e-06
2.602598e-06
4.452918e-07
5.045409e-07
2.248458e-06
2.923572e-06
6.26649e-07
0.003667697
0.002023696
0.003416424
0.002842614
0.004910189
0.002823747
0.004746082
0.00343065
0.002077313
0.003544836
0.002803605
0.004767916
0.002864553
0.004850713
0.0009886019
0.003102138
0.001222411
0.002626219
0.001217838
0.004092
0.001595722
0.000716021
0.0002491495
0.0006575593
0.0002083902
0.0005963479
0.0002088226
0.0005554815
0.0007203351
0.0002345989
0.0007131642
0.0001899784
0.0005810563
0.0001912458
0.0005852983
0.0007146138
0.0002389708
0.0007304021
0.0001831895
0.0005619258
0.0001886092
0.0005807871
0.003777673
0.006231373
0.007403045
0.00732153
0.005995595
0.009976003
0.01190826
0.07827461
0.07852033
0.06572093
0.08886847
0.1115885
0.1139209
0.08652156
0.001506638
0.003439656
0.003707008
0.001049073
0.001148826
0.002546187
0.002792879
0.008177491
0.01596219
0.01288834
0.01560455
0.01310488
0.02301713
0.01981511
2.858764e-05
1.99513e-05
3.683747e-05
8.699156e-05
3.99453e-05
2.756873e-05
5.240278e-05
0.0006862757
0.000231446
0.0007015228
0.0001705828
0.0005243135
0.0001777133
0.0005424748
0.1432072
0.1737903
0.1517371
0.202807
0.1368675
0.1660995
0.1330636
3.013057e-05
2.537068e-05
2.828022e-05
2.353812e-05
2.992052e-05
2.522759e-05
2.824685e-05
0.0401
0.0312777
0.0457486
0.04581394
0.05742858
0.04527904
0.05645342
0.0007659114
0.0005978924
0.0002889775
0.0005868721
0.001178508
0.0009152603
0.0004348248
0.3770357
0.4300633
0.4166949
0.21047
0.2136249
0.2098374
0.2140832
4.925091e-07
5.992381e-07
4.902975e-07
5.187193e-07
6.369197e-07
5.180279e-07
6.361786e-07
9.695239e-05
6.780275e-05
5.948643e-05
7.80361e-05
9.488683e-05
6.382807e-05
5.58762e-05
1.222524e-05
1.576149e-05
1.419009e-05
1.382165e-05
1.224771e-05
1.579303e-05
1.421215e-05
0.002418175
0.001097393
0.003903304
0.0005651795
0.002362596
0.0009934287
0.003640103
0.2181938
0.2161349
0.2060315
0.3078812
0.3002793
0.3015988
0.2871139
8.207096e-07
1.444596e-07
5.648943e-07
2.334513e-07
9.001926e-07
1.545626e-07
6.045505e-07
4.139922e-05
5.419374e-05
4.005684e-05
5.568884e-05
4.14011e-05
5.419698e-05
4.005703e-05
0.06787919
0.07015378
0.07019187
0.08990806
0.08606404
0.08992684
0.08596483
0.001314844
0.003210849
0.003201163
0.0009640539
0.0009842142
0.002331262
0.002338028
0.0307423
0.01016195
0.003872621
0.01364322
0.03288342
0.01110277
0.004335729
0.2017247
0.1875995
0.1861293
0.2049439
0.202814
0.1836786
0.1829284
0.04468565
0.06956762
0.07276652
0.03473198
0.03524513
0.05795774
0.06058916
1.103623e-05
1.233591e-05
1.167935e-05
7.886377e-06
9.006814e-06
8.523823e-06
1.064606e-05
0.4555461
0.498179
0.50912
0.2577908
0.2352812
0.2463365
0.2342654
0.04491589
0.03483001
0.04417942
0.04439241
0.05506592
0.04567532
0.0558853
0.0005274275
0.0004392731
0.0002027616
0.001623732
0.0005773529
0.0004827639
0.0002120946
2.494564e-07
1.919086e-07
1.596777e-07
1.682934e-07
2.640912e-07
1.980932e-07
1.647882e-07
0.3514342
0.3695164
0.3860402
0.2431454
0.2524569
0.2455199
0.2570329
0.0003892599
0.0008979361
0.0003356422
0.001334763
0.0004274392
0.001008291
0.0003682768
5.113151e-05
5.506226e-05
4.958844e-05
5.757937e-05
5.110729e-05
5.514758e-05
4.965349e-05
0.06539703
0.06737905
0.06662262
0.07657557
0.07952099
0.08383898
0.08391711
0.01542033
0.03531394
0.02021016
0.03691725
0.01684396
0.03916767
0.02223407
1.198525e-05
1.025332e-05
1.298721e-05
1.12635e-05
1.023262e-05
1.298204e-05
1.126012e-05
0.0003685781
0.0001750212
0.0002265737
0.0007263967
0.0005597501
0.0002595717
0.000338749
5.138575e-05
5.828342e-05
5.122857e-05
5.773619e-05
5.091626e-05
5.746412e-05
5.071938e-05
0.0169883
0.008023901
0.007779077
0.01280435
0.01269595
0.006010902
0.005810275
0.2060438
0.209291
0.2057599
0.2029404
0.2069261
0.2061738
0.2031556
0.0005528548
0.0003531776
0.0008122902
0.0003474736
0.0007739841
0.0005199436
0.001133843
5.480711e-05
0.0001041315
4.230778e-05
0.0001240738
7.930918e-05
0.0001530621
6.066426e-05
0.3335131
0.3026492
0.2610741
0.2796001
0.2834481
0.2782417
0.2838148
0.06143409
0.07276813
0.06160222
0.08270271
0.07896656
0.08189155
0.07611631
0.02155051
0.01286737
0.01523699
0.03267392
0.03544684
0.02178878
0.02635975
0.001326863
0.0003414631
0.0003721092
0.00168235
0.001960437
0.0005041288
0.0005566168
0.008821387
0.008643142
0.01177428
0.00865739
0.01312693
0.01324799
0.01802061
0.0002058554
0.0001512793
0.0001334277
0.0003733541
0.0003094684
0.0002258416
0.0001970681
0.06509575
0.06618183
0.06620239
0.07471918
0.07568187
0.08608494
0.09142266
5.73235e-07
6.196866e-07
4.811462e-07
5.050264e-07
5.732576e-07
6.202795e-07
4.812176e-07
0.0001090173
0.0001637503
0.0005981086
0.0003468233
9.177793e-05
0.0001318981
0.0004850155
0.002783669
0.005980021
0.003845362
0.0009977188
0.002158413
0.004691515
0.002972483
2.017433e-05
1.779367e-05
2.029149e-05
1.89086e-05
2.054195e-05
1.783495e-05
2.031142e-05
5.128273e-05
4.536016e-05
5.475903e-05
6.283697e-05
4.839435e-05
4.186574e-05
5.058693e-05
0.02449632
0.0191893
0.01757975
0.01892714
0.03568571
0.02754763
0.02621353
0.2016808
0.2005819
0.1943039
0.187932
0.1999257
0.2021916
0.1840527
0.2209546
0.2159107
0.1863912
0.1878915
0.2232415
0.2522609
0.2980862
2.62862e-05
3.862932e-05