/*--------------------------------*- C++ -*----------------------------------*\
| =========                 |                                                 |
| \\      /  F ield         | OpenFOAM: The Open Source CFD Toolbox           |
|  \\    /   O peration     | Version:  1912                                  |
|   \\  /    A nd           | Website:  www.openfoam.com                      |
|    \\/     M anipulation  |                                                 |
\*---------------------------------------------------------------------------*/
FoamFile
{
    version     2.0;
    format      ascii;
    class       volScalarField;
    location    "40000/fluid";
    object      epsilon.gas;
}
// * * * * * * * * * * * * * * * * * * * * * * * * * * * * * * * * * * * * * //

dimensions      [0 2 -3 0 0 0 0];


internalField   nonuniform List<scalar> 
4960
(
3.964089e-05
0.001550421
4.938486e-05
9.046257e-07
0.6162581
0.006736541
1.382503e-05
0.06662233
0.002065048
0.0004826948
0.001108998
0.2868162
2.609462e-06
0.01859556
0.09181156
0.4858539
0.3208443
2.153842e-05
0.0001736688
0.04767501
0.06410844
4.416019e-05
0.0006995415
4.713929e-05
0.3287916
0.0002688631
0.04404645
5.714535e-07
0.1109915
0.06138354
0.1569579
0.1241847
0.05189802
0.02559867
0.01727622
0.0006291878
4.638296e-07
0.01587057
0.01923123
0.0001833507
0.001298754
0.001020035
1.063782e-05
0.04187547
0.1261032
0.05880931
0.0004539137
0.07672988
0.0003106307
0.09449704
0.1077411
7.857098e-06
0.004496129
0.001831084
0.0001215632
0.02131012
0.0001764311
0.0001306317
0.000886896
4.732285e-05
0.02157999
1.258962e-07
0.000465403
0.0005376795
0.1630294
0.09059112
0.135641
2.398457e-06
0.2766911
3.325319e-07
0.0002431147
5.513086e-05
5.474549e-05
0.01210306
0.04621107
0.04616544
1.072517e-07
0.000378513
0.01061958
0.5407614
1.795489e-05
0.0003253558
0.2903375
0.0003563038
0.007344453
0.0001110025
0.1042947
0.01218718
0.09650928
0.01762772
0.009933587
0.01003549
0.0002032272
0.0006610737
4.928271e-05
0.2438669
0.01613103
0.000474645
0.009675578
0.001775671
0.02159065
0.03251981
3.522604e-07
0.02769229
0.001352995
0.0005647513
2.645184e-05
1.409844e-06
1.203093e-05
7.738497e-05
0.005391104
0.0006929681
0.1238102
0.0163138
0.02064946
0.000200479
0.007443053
0.0148441
0.01225939
0.001376153
8.565141e-05
0.000315919
2.046916e-07
0.06262242
0.1560363
0.0001537641
0.669496
0.1507659
9.063065e-08
0.002722849
4.484882e-08
0.0005239415
0.0005698383
0.0007131491
0.04792852
0.02181592
0.06409415
0.0007110207
0.0192354
0.03473755
0.01603452
9.093695e-05
0.21036
0.005341183
0.1855088
0.1484137
0.1937109
0.03662885
0.001388355
0.002540866
0.08510894
0.2203492
0.1243422
0.02661702
0.0001994283
0.2755907
0.1967285
0.6360947
0.1575208
0.1739621
0.3342257
0.3828163
0.1387733
0.000234176
0.1285634
0.7286189
0.01936605
0.0003692948
0.6330079
1.685165e-05
0.2789927
0.0003825331
0.5501957
0.0001965512
0.4870857
0.0005606769
0.0002926295
0.1265601
0.0008864316
0.1504375
0.000886395
0.2233671
0.1735877
0.2613482
0.1166567
0.1120513
0.37575
0.135978
0.0001247025
0.1031615
0.0008867658
6.218456e-06
2.032441e-05
0.1957765
1.119982e-05
3.037603e-05
5.098606e-05
0.1662213
3.210613e-05
0.5094959
0.1622042
0.06906118
2.94714e-06
0.006955562
0.01814291
0.01884526
0.002049764
0.00209609
0.00200025
0.03895761
0.06054406
0.01095606
0.01417755
0.0005280336
0.001979003
0.1103122
0.0002092831
0.03709545
0.003312659
0.3908494
5.3383e-06
0.0007091448
0.0001225825
0.005276457
0.2305826
1.934493e-06
0.0004952356
0.04694093
0.011392
0.03441892
0.2015177
0.3921355
0.0001115245
0.4366688
0.2833904
0.01284703
1.479565e-06
0.3464986
0.006054784
0.000511099
0.5857923
0.04487104
0.0001067472
0.004219226
0.0005127135
0.02928973
0.2051595
0.002112449
0.0007498302
0.4428463
0.6282167
0.1673861
0.007912078
0.04901423
0.002162778
0.5746779
4.482589e-06
0.003548975
0.009883759
0.0001648983
0.0005749775
0.09610679
0.1995132
0.3266668
0.0004191516
1.783245e-05
0.0001359663
0.2051178
0.0008866454
0.1252528
0.2165405
0.02378417
0.005876544
0.08394373
0.5843013
0.02337372
3.601763e-05
0.01053723
0.003751694
0.05375071
0.457681
0.1406808
0.5713505
0.04658587
0.009597541
0.0001074477
0.00156694
0.4147945
0.0001883358
0.002276719
0.0002848738
0.1413064
0.2536374
0.005582365
0.0103351
0.0004067767
0.1572508
0.125051
0.1892327
8.085779e-05
0.1765124
0.223071
0.2110173
0.0002864191
0.0008870773
0.04955722
0.2126427
7.902187e-05
0.000684221
5.938652e-05
0.1503143
0.02521714
0.003030794
0.1918293
0.142126
0.02622788
5.950716e-05
0.01302107
0.01797542
0.2273101
0.09970908
0.06747038
0.09626211
0.08412527
0.2879912
0.07923481
0.1435157
0.08467389
0.1025734
0.1940314
0.0004936039
7.669339e-05
0.0001213248
0.0004732115
3.229798e-05
5.728369e-05
0.0002506393
7.805258e-05
6.973771e-05
0.06934246
0.09553948
0.1212571
0.2279909
0.000922531
0.2380501
0.2309351
0.2232158
1.564947e-05
1.7816e-05
8.120319e-06
0.000114816
0.09430355
4.036424e-07
6.271298e-06
0.0008870229
0.001174162
0.003214412
0.07845595
0.0003482467
0.1352376
0.0004307774
0.000444752
0.1188001
0.005312997
0.3237363
0.5349408
0.004258802
0.247226
0.8396491
0.0003162689
0.03744943
0.02155306
0.000501368
0.0003018356
0.004801135
0.004210322
0.9084804
0.2810117
0.2225342
0.3285641
3.937387e-05
0.2434452
1.087837e-06
0.1428696
0.1933393
0.0005670528
0.0005696824
0.002336511
0.000716982
0.004245054
1.13719e-05
0.1010703
0.05954072
0.08175402
0.3512109
1.821624e-05
0.01536758
0.006076999
0.1040524
0.000688827
0.08371934
0.0006055506
8.053721e-05
0.05388594
0.03240336
0.3018884
0.0007012253
0.1161352
0.3746162
0.1313579
0.0154401
0.2402996
4.284245e-05
0.2328318
0.0008093627
0.09051934
0.481664
0.0002925464
7.765445e-06
0.0008871357
0.0001612893
0.6870682
0.0006137254
0.002222253
3.903585e-06
0.005279703
0.4870164
0.0001707393
0.2475972
0.03250228
0.0004498811
0.05479537
0.0008865326
5.32245e-05
0.001111024
0.1362612
0.06048846
2.690212e-06
0.0001510032
0.03430488
0.0005232336
2.359257e-05
0.3910803
0.2618435
0.04621511
0.2175282
0.0001328818
0.3017931
0.0003985693
0.009624174
0.001431019
0.0004892726
4.115068e-05
0.2313606
0.006200964
0.0008872603
0.3155529
0.0006466226
0.0006002495
0.0004032454
0.4221319
0.000508534
0.2575256
0.0001724225
0.4666315
3.376132e-06
4.055579e-05
0.001078286
0.1771986
0.01110273
0.123667
0.06841757
2.061924e-06
0.0001624618
0.4244225
0.03212181
0.01586715
3.003735e-06
2.292317e-05
0.0004395916
0.2603492
7.972919e-06
9.033368e-05
2.161095e-06
5.987995e-05
1.12721
0.08748383
0.0001832424
0.2290645
0.0008873778
0.0007027458
0.0003149351
0.1618227
0.0002344587
2.791558e-05
0.2046323
0.1388317
0.0002203985
0.0003790095
0.07221943
0.0001842487
0.1006574
0.2178152
0.1161027
0.1058485
0.0001712646
0.2214315
0.0008937503
0.1996482
0.0003218129
0.03365085
0.0002989432
0.1813483
6.598539e-05
1.59427
3.569757e-06
0.1306042
0.1254486
0.2360327
0.0001035404
0.0001134051
0.1665845
0.0002840621
0.49995
0.1260791
0.5645456
0.0003460222
0.4569306
5.034109e-05
5.09424e-05
0.002436535
3.292372e-05
0.0002541486
0.2298975
0.7629545
0.0001082619
0.003397945
0.001321343
0.03875107
0.0007807881
7.173057e-05
0.07533304
0.2051736
9.956091e-05
0.06531211
0.900958
0.1700642
0.9157581
0.002411861
0.2579491
0.4006132
0.777996
0.302712
0.0008874845
0.0006650458
4.16757e-06
0.01939529
0.4645316
0.5006384
0.003072452
0.0008137915
0.000893084
0.2341988
0.1088773
0.05397275
0.03335086
0.0004116882
8.381105e-06
1.160835e-05
3.953692e-06
0.0002391587
0.1011879
0.1175185
0.0001604313
0.1280096
1.716146e-06
2.600978e-05
0.2186341
6.249044e-05
0.1204803
0.03868224
0.0001376221
5.100983e-05
3.404306e-05
0.246783
0.0009089841
0.0007388661
0.2086702
0.0007854414
0.001237701
0.0003353221
0.001005015
1.123698
0.0002287446
1.761704
0.2933759
0.7142498
0.0998985
0.137199
0.0003168088
0.0008875173
6.045755e-06
7.749459e-05
0.6311044
0.0006527448
3.940823e-05
8.987326e-06
0.1225929
1.746787e-06
0.07795982
0.05330752
0.1227094
0.1253935
7.386626e-05
0.7654025
0.1014833
0.06777379
7.118858e-05
0.0008223545
0.0007458723
3.224898e-05
3.957097e-05
3.213761e-05
4.056236e-05
3.236258e-05
4.051743e-05
3.231452e-05
0.0005199374
0.0006414577
0.001336788
0.002200824
0.0007143041
0.0008752758
0.001884035
5.529475e-05
7.63862e-05
3.534956e-05
4.819423e-05
5.474731e-05
7.608971e-05
3.405473e-05
7.20015e-07
9.038303e-07
7.211168e-07
7.517534e-07
9.363389e-07
7.504833e-07
9.325667e-07
0.08382757
0.07899743
0.1913761
0.7518931
0.05750008
0.07921209
0.06047829
0.002586151
0.003234966
0.002006558
0.007325317
0.002836557
0.00660349
0.002315996
1.139715e-05
4.705321e-05
6.078446e-05
1.222191e-05
1.087307e-05
4.30044e-05
5.213916e-05
0.08208673
0.07823145
0.05596028
0.3820973
0.1247685
0.3591813
0.1100112
0.001341906
0.002875884
0.000910736
0.003079412
0.00202862
0.004452019
0.001389668
0.0003792957
0.0004978637
0.0003807574
0.0004827482
0.0003793184
0.0004978984
0.0003807925
0.0006315421
0.001166096
0.0004119037
0.001311313
0.0007452043
0.001467746
0.0004735789
0.2648324
0.279832
0.2734217
0.2773457
0.2584248
0.2735905
0.2660159
2.60401e-06
2.45134e-06
2.319488e-06
2.787025e-06
2.453739e-06
2.314522e-06
2.785795e-06
0.01796095
0.008873871
0.02958966
0.01538376
0.01524066
0.01505699
0.03352108
0.0596822
0.09978197
0.05686462
0.1163676
0.1270673
0.1218258
0.06046323
0.3258072
0.04709291
0.4713083
0.06964746
0.05679259
0.04887013
0.1024859
0.3307182
0.3119264
0.3649918
0.7085774
0.5126155
0.5453407
0.6775975
2.611026e-05
2.454751e-05
2.048593e-05
2.152504e-05
2.609055e-05
2.453342e-05
2.049406e-05
0.0001574996
0.0001450115
0.0001876021
0.0001734693
0.0001572776
0.0001448668
0.0001870457
0.08549507
0.07707929
0.06281553
0.05745983
0.09515803
0.07368774
0.07440754
0.05928051
0.1419661
0.1135405
0.05968839
0.07872386
0.1522936
0.1092894
4.033521e-05
3.919166e-05
3.607189e-05
4.42574e-05
4.044163e-05
3.932101e-05
3.617063e-05
0.0006169938
0.0006976957
0.000617843
0.0006995419
0.0006169939
0.0006976958
0.0006178434
1.273242e-05
1.498356e-05
4.34127e-05
4.277871e-05
1.340354e-05
1.505992e-05
4.130262e-05
0.3889023
0.1888046
0.5353631
0.5671233
0.07981418
0.4832033
0.06378477
0.0003066536
0.0002775887
0.0003150157
0.0002741627
0.0003050247
0.0002770453
0.0003139999
0.3227449
0.1660815
0.5095745
0.06741695
0.09412134
0.6284948
0.08333762
4.50384e-07
5.723376e-07
4.498841e-07
6.004149e-07
4.786805e-07
6.026051e-07
4.854761e-07
0.4345197
0.4745049
0.5795028
0.09392849
0.05033038
0.07636478
0.06561473
0.07116817
0.1188565
0.0802037
0.01783818
0.03012562
0.02726543
0.04238643
0.1101828
0.1893891
0.08842995
0.1543383
0.1232957
0.152726
0.1800861
0.09727737
0.1271688
0.09109075
0.120102
0.09386969
0.1357374
0.0950219
0.04169787
0.05983177
0.07739033
0.09363297
0.0766311
0.09342482
0.09086868
0.02984736
0.0400325
0.03775277
0.03158813
0.05068889
0.064207
0.04887515
0.04719576
0.1541962
0.03006435
0.03137704
0.1023551
0.1760782
0.07301363
0.0006315216
0.0007073692
0.0007057747
0.000629125
0.0006314982
0.0007073059
0.0007056796
7.353609e-07
2.33113e-06
3.598848e-06
4.753326e-07
7.638054e-07
2.327232e-06
3.649094e-06
0.007232761
0.04169138
0.03324099
0.00761655
0.01114125
0.02404637
0.01192478
0.01689854
0.09314246
0.07813763
0.09259772
0.02773926
0.160537
0.2147993
4.247887e-05
0.0001096383
0.0001039428
0.0001604189
3.672346e-05
9.424387e-05
9.088084e-05
0.0002972031
0.0006104351
0.0007617507
0.001792347
0.000373884
0.000787925
0.001045134
0.001087402
0.0002667757
0.0003624534
0.001174519
0.001322905
0.000278558
0.0003783689
1.240395e-05
1.262857e-05
1.05682e-05
1.06309e-05
1.241594e-05
1.262099e-05
1.058624e-05
0.1735774
0.09402208
0.07566073
0.02984566
0.2876239
0.05674103
0.06301958
0.0838386
0.1122377
0.06391398
0.1334823
0.5401835
0.1167313
0.08086194
0.01627308
0.1390662
0.1883149
0.01724107
0.01246334
0.115259
0.1566495
0.0003962605
0.0004069914
0.0004466434
0.0004548032
0.0003963164
0.0004078097
0.0004466441
0.5504257
0.08667178
0.07078111
0.08748465
0.08261682
0.08544548
0.1096276
0.0003267652
0.0003513545
0.0003639842
0.0003102129
0.0003268793
0.0003506388
0.0003644776
0.05983441
0.05082366
0.07746836
0.1066153
0.06709242
0.05102116
0.08566998
0.1485284
0.1487893
0.09791722
0.1602924
0.06942333
0.2361425
0.1546246
8.6355e-06
1.859812e-05
2.266761e-05
7.347638e-06
9.246274e-06
1.842421e-05
2.449265e-05
0.01278804
0.006236857
0.00823011
0.006785831
0.01975699
0.009566662
0.01404786
0.0007792503
0.001045176
0.001974382
0.002592504
0.00106452
0.00137553
0.002561251
0.0001383221
0.0001272294
0.0001109935
0.0001214532
0.0001381505
0.0001271314
0.0001109997
0.01678983
0.008330303
0.01016342
0.03360682
0.02595898
0.01280837
0.008712397
0.0001376783
0.0001555712
0.0001552473
0.0001766548
0.0001378668
0.000155663
0.0001555837
7.407616e-05
0.000101321
0.0001435514
0.0001304928
7.3904e-05
0.0001011463
0.0001434082
0.0008867015
0.0008869498
0.0008868944
0.0007948681
0.0007937505
0.000794431
0.0007934885
0.0001010794
0.0001133072
5.818114e-05
4.728347e-05
0.0001009898
0.0001130725
5.799567e-05
0.06534617
0.03389105
0.1015858
0.02377121
0.07311497
0.03648975
0.0831039
1.772109e-07
5.316778e-07
3.071929e-07
1.309486e-07
1.915117e-07
5.711101e-07
3.144298e-07
0.000453805
0.0005319391
0.0005223416
0.0004654029
0.000453805
0.0005319391
0.0005223416
0.0004373215
0.0005376795
0.0004373215
0.0004312777
0.0005124172
0.0004312777
0.0005124172
0.150229
0.1798133
0.1616852
0.2699876
0.2827838
0.2892846
0.2906242
0.02189728
0.150486
0.09273322
0.02191019
0.05182783
0.02459397
0.02810586
0.1438762
0.1051723
0.6434158
0.1505899
0.1510577
0.08994612
0.1118142
2.692615e-06
1.192683e-05
9.329037e-06
2.826409e-06
3.605205e-06
1.53156e-05
1.140795e-05
0.2520506
0.2628008
0.2675205
0.2792745
0.2544216
0.2696786
0.2645024
2.49698e-07
6.759556e-07
7.362604e-07
3.946856e-07
2.925127e-07
7.785918e-07
8.851833e-07
0.0002739528
0.0002918227
0.0002632352
0.0002429784
0.0002738196
0.000291309
0.0002628835
0.000148334
9.610776e-05
8.51721e-05
6.543454e-05
0.0002051487
0.0001256506
0.0001128813
3.98157e-05
8.152832e-05
5.862301e-05
5.497905e-05
3.984676e-05
8.159355e-05
5.863227e-05
0.04461047
0.03148394
0.01264747
0.01355231
0.0132152
0.01729516
0.06354977
0.02986502
0.07995441
0.06997846
0.06830093
0.07992394
0.1167689
0.1067129
0.07481071
0.04480318
0.08982718
0.444664
0.06493171
0.09643282
0.07049391
7.240734e-08
1.083822e-07
7.384489e-08
9.310799e-08
1.292036e-07
9.605472e-08
1.304092e-07
0.0003742607
0.000431389
0.0004255508
0.0003768809
0.0003737704
0.0004294111
0.0004255141
0.006752096
0.003376206
0.02086921
0.007733416
0.005104697
0.002575284
0.01599022
0.4226969
0.3393184
0.1755481
0.2296816
0.3749575
0.1790218
0.2254653
1.456451e-05
1.725837e-05
1.492864e-05
1.794435e-05
1.457734e-05
1.726994e-05
1.492002e-05
0.0002178156
0.0002527664
0.0003829294
0.0002944822
0.0002229989
0.0002601309
0.000343435
0.274538
0.3669114
0.06269187
0.3925537
0.3900326
0.4232784
0.5037754
0.0002890029
0.0003562991
0.0002892469
0.0002936366
0.0003544999
0.0002936355
0.000354504
0.004934822
0.003645657
0.0074781
0.01102039
0.004609594
0.004788521
0.006452327
3.622989e-05
5.446905e-05
0.000163064
0.0001499182
4.629799e-05
7.21306e-05
0.0002255292
0.01828536
0.1645971
0.1495795
0.1474785
0.02523967
0.2334284
0.1951558
0.01927213
0.04546897
0.01446097
0.03515117
0.06035586
0.02891256
0.04674042
0.1414938
0.1322393
0.08897292
0.139315
0.2142126
0.04545058
0.1313847
0.01967266
0.06556962
0.02447107
0.0265544
0.01524339
0.06926638
0.02443953
0.02464535
0.01156616
0.04950559
0.05775689
0.01569041
0.09559549
0.0125111
0.02744966
0.03558108
0.05713485
0.01536242
0.01306691
0.04587877
0.01234165
0.0002052852
0.0002333301
0.0002389726
0.0002078784
0.0002052719
0.0002393756
0.0002388936
0.0006819418
0.0007274298
0.0007437062
0.0006609566
0.0006819851
0.000727214
0.0007435297
0.0001454118
0.0001194731
4.486045e-05
6.557497e-05
0.000201025
0.0001640503
5.854384e-05
0.2317719
0.2370743
0.2345201
0.2438264
0.2296638
0.2398847
0.233515
0.04736465
0.03322977
0.04524527
0.02227869
0.08722148
0.03108252
0.0390285
0.0004793366
0.0005405558
0.0005437696
0.000474645
0.0004793368
0.0005405559
0.00054377
0.02863823
0.026692
0.01215257
0.02341885
0.01093607
0.0233412
0.01096291
0.001836816
0.005362047
0.004313903
0.001390338
0.00144741
0.004226564
0.003341411
0.01670443
0.03126137
0.03963053
0.0139535
0.0262157
0.04992557
0.05016965
0.03915406
0.05583876
0.06309908
0.05041849
0.05942165
0.0346432
0.09851219
2.706151e-07
3.520522e-07
2.704358e-07
3.092497e-07
3.862329e-07
3.195282e-07
3.957401e-07
0.02254996
0.02388175
0.01300229
0.04331061
0.03543254
0.07496337
0.01419562
0.0008472708
0.0006054301
0.001070656
0.002031686
0.001260437
0.0008629248
0.001558711
0.0005389704
0.0005935218
0.0006198765
0.0005647607
0.0005388404
0.0005934287
0.0006201758
2.17179e-05
2.637678e-05
2.159512e-05
2.188479e-05
2.661413e-05
2.185881e-05
2.657821e-05
1.132318e-06
1.407205e-06
1.13056e-06
1.400469e-06
1.166968e-06
1.399898e-06
1.161817e-06
9.880359e-06
1.19907e-05
9.82238e-06
1.036505e-05
1.24112e-05
1.03523e-05
1.239572e-05
0.0001041381
0.0002519832
0.0003254762
9.664781e-05
0.0001299902
0.0003338481
0.0004306063
0.01012798
0.004450883
0.008509343
0.006780318
0.008566439
0.006877234
0.01122161
0.001396685
0.0005021886
0.001011953
0.0009939209
0.002030748
0.0007100385
0.001455398
0.1636781
0.2275731
0.2132294
0.2926378
0.2667671
0.4031554
0.3899734
0.008309367
0.0115357
0.005605829
0.02491593
0.01279066
0.0199663
0.009851883
0.0164574
0.02012817
0.05275217
0.1224822
0.01614047
0.1937357
0.03053054
0.0002004641
0.0001033522
5.896438e-05
0.0002144824
0.0001033132
5.891879e-05
0.0002144726
0.007852645
0.006382268
0.01196595
0.02228917
0.01028688
0.007172482
0.01737957
0.01502709
0.005906993
0.005500086
0.0221039
0.02864019
0.01424507
0.009445391
0.02290998
0.0188197
0.009822251
0.02084632
0.04024789
0.03084758
0.01596563
0.0009204534
0.002139629
0.003200215
0.001058898
0.0007060824
0.00161981
0.002557419
9.625025e-05
0.0001085129
9.651879e-05
8.578171e-05
9.62187e-05
0.0001087449
9.67835e-05
0.0006558423
0.0002037337
0.0004273753
0.0004532654
0.0009574195
0.0002822377
0.0006168626
1.507277e-07
2.047745e-07
1.51269e-07
2.34178e-07
1.752352e-07
2.386466e-07
1.76825e-07
0.07998713
0.09704587
0.5370471
0.6450371
0.75002
0.7371179
0.6533144
0.06454386
0.0217494
0.2715066
0.0316939
0.04628614
0.03686979
0.2032511
0.0001247654
0.0001530717
0.0001242276
0.0001617047
0.0001334616
0.0001616692
0.000133418
0.6874657
0.07993115
0.9832236
0.6238551
0.6321213
0.08575014
0.9267006
0.02656073
0.2160324
0.2277269
0.0335596
0.02130297
0.04854358
0.3666346
1.487132e-07
1.955396e-07
1.378135e-07
9.581482e-08
1.493212e-07
1.948637e-07
1.380737e-07
0.002012213
0.004126809
0.005591824
0.004162881
0.002976071
0.006364896
0.008771981
7.460958e-07
4.651687e-08
6.6445e-07
6.356464e-08
2.633271e-07
6.77076e-08
2.476022e-07
0.0005152221
0.0005818725
0.0005740235
0.0005244694
0.0005152565
0.0005816602
0.0005739322
0.0005809426
0.0006193969
0.0006218443
0.0005815795
0.0005741027
0.000614759
0.0006505657
0.0006473438
0.0006403716
0.0007178147
0.000712864
0.0006469546
0.0006399991
0.0007172838
0.09132658
0.04037503
0.07933921
0.0146658
0.01947562
0.06258895
0.1097977
0.01671503
0.02636107
0.04792608
0.01117914
0.01141144
0.03498757
0.0129224
0.04167174
0.2772969
0.314387
0.2706679
0.04798288
0.06610088
0.03921792
0.0006361202
0.0006337128
0.0007089368
0.000710171
0.0006364007
0.0006337639
0.0007088488
0.006934299
0.008817527
0.009476004
0.04384795
0.01740691
0.04550496
0.01012069
0.01878402
0.03145679
0.04785404
0.03854618
0.02554499
0.04414878
0.06841305
0.007789648
0.01120968
0.03576383
0.01582223
0.007866697
0.0205184
0.03852344
4.553839e-05
7.79646e-05
0.0001862565
7.845773e-05
4.546259e-05
7.103627e-05
0.0001503975
0.2149249
0.2186708
0.2146667
0.2127161
0.2134523
0.2155364
0.2144341
0.005307533
0.005392606
0.002455691
0.00243211
0.005321771
0.002264868
0.002287331
0.2223798
0.1747757
0.2102341
0.231611
0.1022369
0.1691474
0.1772254
0.1320767
0.1470702
0.133088
0.1488864
0.1329076
0.1471802
0.1340025
0.2036166
0.1852527
0.1880743
0.1777512
0.1809166
0.1795584
0.1779915
0.03980186
0.06897458
0.05868486
0.05162172
0.03383209
0.09753981
0.08406898
0.0009970506
0.001048679
0.001411953
0.001321101
0.0009712711
0.00102063
0.001347245
0.001211697
0.0009258237
0.001883797
0.002898432
0.001784097
0.001347589
0.002768166
0.03118984
0.1071038
0.09887802
0.1402163
0.1918501
0.2302225
0.1644243
0.2182676
0.2205317
0.2223249
0.2164002
0.2157992
0.2172947
0.2183483
0.1123731
0.1164414
0.1265715
0.1259094
0.1132601
0.1161129
0.1279548
0.02598486
0.1243329
0.0836846
0.08825579
0.1674081
0.2024563
0.1271821
0.0001753552
0.0002060155
0.0002274456
0.0001994352
0.0001753984
0.0002060225
0.0002274674
0.3628792
0.2767164
0.3613374
0.05196669
0.0697543
0.0477816
0.05237401
0.1895776
0.1959202
0.1895672
0.2957786
0.2931
0.2974204
0.2959742
0.4911768
0.5635294
0.709279
0.5779769
0.4452712
0.5405989
0.6857532
0.1662288
0.1678385
0.1772951
0.1740818
0.1755937
0.1732766
0.1751625
0.1743963
0.177683
0.1759461
0.1798262
0.1785878
0.1815603
0.1787743
0.3246658
0.3568415
0.3502313
0.3025699
0.2966258
0.2933749
0.2919051
0.3690429
0.4134392
0.3740121
0.278954
0.2899977
0.2823928
0.2880146
0.109158
0.1277919
0.1472528
0.1401391
0.1114767
0.1282399
0.1474194
0.0001914221
0.0002342467
0.0001900761
0.0001983114
0.0002409899
0.0001982893
0.0002409424
0.1287415
0.1286507
0.1279148
0.1291568
0.1281786
0.1289068
0.1285466
0.6821782
0.5705772
0.3796873
0.6439013
0.6174708
0.1113793
0.06732949
0.01088329
0.02450807
0.009963421
0.02921655
0.01602888
0.03624619
0.02023095
0.0003634642
0.0004169084
0.0004211188
0.0003692921
0.0003634655
0.0004169084
0.0004211178
0.5874332
0.117159
0.09673216
0.5437595
0.5105133
0.1833902
0.1125309
4.737602e-05
4.44262e-06
1.763675e-05
1.683124e-05
4.733999e-05
4.434537e-06
1.761024e-05
0.3556264
0.2869679
0.3548988
0.4479284
0.08057777
0.4334486
0.5147173
0.0004359914
0.0003876126
0.0004388055
0.0003804213
0.0004331093
0.0003872885
0.0004384802
0.5304241
0.1280349
0.1297981
0.4686969
0.5469111
0.6887237
0.1311743
0.0001890814
0.0002151537
0.0002279886
0.0001965264
0.0001891947
0.0002152845
0.0002278382
0.5657455
0.1214661
0.1040031
0.7299466
0.6556361
0.09471
0.06534968
0.0002325791
0.0006954667
0.0003653512
0.0004527224
0.0001964034
0.0005461476
0.0002943862
0.0002805406
0.0003297748
0.0003352198
0.0002924644
0.0002768153
0.0003235971
0.000334933
0.1259239
0.1269086
0.1275828
0.1271756
0.1265433
0.1277583
0.1283327
0.0008862558
0.0008864993
0.0008864717
0.000886171
0.0008864332
0.0008858821
0.0008859292
0.1337731
0.1332056
0.1549772
0.1519587
0.1349328
0.1343608
0.1576787
0.0008863503
0.0008864869
0.0008866721
0.0008878985
0.000886432
0.0008877389
0.0008861748
0.03408571
0.06759797
0.01323916
0.1390999
0.07183036
0.04483395
0.01516247
0.1676016
0.1749182
0.1688506
0.1828862
0.1877592
0.1845247
0.1892475
0.3512434
0.3468921
0.2585228
0.3938425
0.07282312
0.06255679
0.03612992
0.1251346
0.1207424
0.1262922
0.1200055
0.1258819
0.1204589
0.1278408
0.1271202
0.1233816
0.1079074
0.1104138
0.12665
0.1224656
0.1061535
0.4381212
0.400899
0.4050843
0.2677689
0.261042
0.2710821
0.2616674
0.04476162
0.3546577
0.1650934
0.1256942
0.07740004
0.3267964
0.1481646
8.100044e-05
0.000320103
0.0001825038
0.0001447909
8.93171e-05
0.0003804739
0.000206239
0.1202311
0.1049234
0.09750675
0.1047205
0.1218824
0.1062913
0.09909388
0.0008865699
0.0008868293
0.0008867744
0.0007967579
0.000799162
0.0007965203
0.0007987023
5.463752e-06
7.02616e-06
6.320085e-06
5.475475e-06
5.404774e-06
6.633243e-06
6.276541e-06
5.682802e-06
2.861073e-05
8.162301e-06
1.820304e-05
4.983313e-06
2.425819e-05
7.25476e-06
0.1952086
0.2162345
0.2160898
0.1997202
0.2051217
0.2001921
0.2057993
4.476602e-06
1.521135e-05
5.03946e-06
1.265512e-05
4.346931e-06
1.564342e-05
4.564422e-06
4.032112e-05
3.515165e-05
4.441337e-05
3.054386e-05
4.482023e-05
3.517629e-05
4.440695e-05
1.114001e-05
4.371024e-05
1.255955e-05
5.547226e-05
1.122746e-05
4.563008e-05
1.249847e-05
0.1349033
0.1611642
0.1373684
0.1679839
0.1365056
0.163448
0.1391351
5.318108e-06
4.203798e-05
7.466815e-06
3.604979e-05
6.728872e-06
4.62345e-05
8.259254e-06
0.05368759
0.09829931
0.08341928
0.05835665
0.07608522
0.09841953
0.09559195
0.159664
0.1628661
0.1602868
0.2019288
0.1939296
0.2027694
0.1954682
0.07462173
0.111151
0.0404339
0.07223543
0.1151459
0.04444541
0.07627028
1.646486e-05
2.310409e-05
3.953122e-06
4.478935e-06
1.995625e-05
2.595347e-05
5.562977e-06
0.009980059
0.0099224
0.02377746
0.02520411
0.03745763
0.02503576
0.04207863
0.03041999
0.01615377
0.03142977
0.02486047
0.04227712
0.02539996
0.02312831
0.008535901
0.02576389
0.01064284
0.008906166
0.01069254
0.02410215
0.0132241
0.003957904
0.002209841
0.005250653
0.001757853
0.003285457
0.00184993
0.004846373
0.006387062
0.001950056
0.006324912
0.001685168
0.005130898
0.001543544
0.005190693
0.006258411
0.002118573
0.005278195
0.001545322
0.004089322
0.001672746
0.005151254
0.03148322
0.05522319
0.06479007
0.06430638
0.05278918
0.08846389
0.1049937
0.1002806
0.07654102
0.06573364
0.08694678
0.1112093
0.1178111
0.08768394
0.01129421
0.03016167
0.02540451
0.008669974
0.009776429
0.02153222
0.0244551
0.06264486
0.02123946
0.02682315
0.1383547
0.01665997
0.2040774
0.0269824
0.0002510502
0.0001770057
0.0003268093
0.0007640011
0.0003499148
0.0002439037
0.0004631744
0.005412666
0.002053377
0.006191475
0.001513311
0.004597087
0.001547012
0.004623256
0.1431963
0.1737903
0.1535768
0.2006845
0.1368652
0.1660995
0.6328528
0.0002675384
0.0002252707
0.0002511297
0.0002090177
0.0002656733
0.0002240002
0.0002508334
0.1226943
0.03103014
0.02959927
0.02872675
0.05735079
0.0452796
0.06237249
0.006205042
0.005167653
0.002510126
0.005021408
0.01037906
0.00797425
0.003755511
0.3770357
0.4300633
0.4166949
0.2104731
0.2136295
0.2098377
0.214085
4.374304e-06
5.322228e-06
4.354661e-06
4.606663e-06
5.656319e-06
4.600522e-06
5.649737e-06
0.0008594627
0.0006013219
0.00052761
0.000692053
0.0008413034
0.0005661067
0.0004955893
0.0001085035
0.0001398934
0.000125938
0.0001226816
0.0001087029
0.0001401734
0.0001261337
0.02144143
0.009731463
0.03460103
0.005011779
0.02094724
0.008809336
0.0322606
0.2181938
0.2161349
0.2060315
0.3078812
0.3002793
0.3015988
0.2871139
7.284666e-06
1.282416e-06
5.014658e-06
2.072485e-06
7.990208e-06
1.372088e-06
5.3665e-06
0.0003681421
0.0004819375
0.0003562098
0.0004952429
0.0003681588
0.0004819663
0.0003562115
0.06846071
0.0940075
0.06837694
0.08990806
0.08606422
0.1272906
0.7621051
0.0112843
0.01967573
0.02839199
0.008550815
0.008356309
0.02067428
0.02073575
0.0413642
0.09004611
0.03140993
0.02570546
0.04363457
0.09838522
0.03706173
0.2017247
0.1875995
0.1861293
0.2049439
0.202814
0.1836786
0.1829284
0.06697462
0.09265898
0.2147602
0.3079559
0.05056055
0.07235143
0.4945922
9.806178e-05
0.0001096409
0.0001037655
7.006843e-05
7.999265e-05
7.57239e-05
9.453024e-05
0.4555461
0.498179
0.50912
0.2577539
0.235283
0.2463365
0.2333186
0.04396084
0.03739686
0.3916591
0.3935942
0.488196
0.4049533
0.4954528
0.004657461
0.003100613
0.001797051
0.01438783
0.005115656
0.00354201
0.001839223
2.214921e-06
1.704025e-06
1.417911e-06
1.494455e-06
2.344861e-06
1.75894e-06
1.463281e-06
0.3514342
0.3695164
0.3860402
0.2431454
0.2524569
0.2455199
0.2570329
0.003312748
0.007362487
0.002963925
0.004930716
0.003348484
0.008930205
0.003256285
0.0004535936
0.0004884937
0.0004399334
0.0005107866
0.0004533785
0.0004892504
0.0004405105
0.5798021
0.59743
0.5900741
0.6787848
0.7048627
0.5890267
0.7019969
0.1366371
0.2460448
0.02394496
0.3271185
0.1492606
0.05201963
0.02716211
0.0001064438
9.10545e-05
0.0001153299
0.0001000178
9.087065e-05
0.0001152841
9.998784e-05
0.003061547
0.001484993
0.002009649
0.006442403
0.00453748
0.002143636
0.003004676
0.0004557919
0.0005169974
0.0004544246
0.0005121093
0.0004516275
0.0005097299
0.0004499079
0.01946153
0.01155576
0.05979188
0.01895731
0.01802837
0.009932857
0.05152222
0.2060438
0.209291
0.2057599
0.2029404
0.2069261
0.2061738
0.2031556
0.004646399
0.002634374
0.003713613
0.0030803
0.004375953
0.004490407
0.009432024
0.000484154
0.0009237305
0.0003749594
0.001097487
0.000694976
0.001325139
0.0005380036
0.3335131
0.3026492
0.2598059
0.2796001
0.3282246
0.1859967
0.2838148
0.4025784
0.6450155
0.5460616
0.6502576
0.6448194
0.6909528
0.61775
0.1910663
0.1140906
0.1333303
0.02919561
0.03455123
0.06356578
0.01854318
0.01174582
0.003027217
0.00329911
0.006780354
0.01471886
0.004469977
0.004935535
0.01975528
0.07661871
0.104376
0.07675834
0.1163882
0.01817459
0.1593476
0.001825776
0.001339179
0.00118311
0.00330176
0.002744723
0.002003142
0.001748006
0.5765597
0.5868269
0.5864254
0.6623883
0.6700335
0.6615873
0.06742162
5.089773e-06
5.502742e-06
4.272211e-06
4.484651e-06
5.089974e-06
5.508007e-06
4.272845e-06
0.0009669824
0.001452246
0.005304443
0.002960304
0.0008140557
0.001169876
0.004301283
0.01054365
0.02055615
0.03410219
0.008839281
0.01413791
0.02242443
0.02635969
0.0001789726
0.0001578644
0.0001800241
0.0001677426
0.0001822339
0.0001582306
0.0001802011
0.0004548498
0.0004023255
0.0004856085
0.0005573026
0.0004292258
0.0003713352
0.0004485726
0.144002
0.03420461
0.04404304
0.1678116
0.2976138
0.2442387
0.2324091
0.2016808
0.2005819
0.1943039
0.187932
0.1999257
0.2021916
0.1840527
0.2282313
0.2838732
0.2361801
0.1878915
0.2232415
0.2522609
0.2980862
0.0002337272
0.0003435014
0.0003000433
0.0004191602
0.0002337516
0.0003435083
0.0003000754
1.461123e-05
1.775725e-05
1.455009e-05
1.805239e-05
1.493337e-05
1.802981e-05
1.491595e-05
0.000200771
0.000415083
0.0005364314
0.0001696076
0.0002529173
0.0005534678
0.0007233176
0.02319762
0.02752067
0.02498971
0.3178396
0.3352621
0.2655128
0.2376688
0.0008864427
0.0008867089
0.0008866368
0.0008028001
0.0008121648
0.0008025519
0.0008117313
0.07495163
0.1499039
0.8349834
0.8670218
0.08348615
0.2256363
0.1752501
0.205978
0.2211263
0.2137156
0.2070927
0.1994302
0.2146851
0.2093478
0.03278507
0.1447163
0.06839686
0.02079409
0.03142548
0.0507869
0.05269817
0.001814516
0.001865142
0.00593681
0.004509055
0.001344042
0.001440827
0.004271992
0.06674426
0.06056838
0.07559823