/*--------------------------------*- C++ -*----------------------------------*\
| =========                 |                                                 |
| \\      /  F ield         | OpenFOAM: The Open Source CFD Toolbox           |
|  \\    /   O peration     | Version:  1912                                  |
|   \\  /    A nd           | Website:  www.openfoam.com                      |
|    \\/     M anipulation  |                                                 |
\*---------------------------------------------------------------------------*/
FoamFile
{
    version     2.0;
    format      ascii;
    class       volScalarField;
    location    "40000/fluid";
    object      k.gas;
}
// * * * * * * * * * * * * * * * * * * * * * * * * * * * * * * * * * * * * * //

dimensions      [0 2 -2 0 0 0 0];


internalField   nonuniform List<scalar> 
4960
(
8.88168e-15
0.002652738
8.884725e-15
8.881377e-15
0.4820781
0.00970614
8.875613e-15
0.05694984
0.00324626
8.892654e-15
0.001598977
0.2583208
8.881318e-15
0.0149513
0.08536574
0.4611271
0.2790323
8.880124e-15
8.879796e-15
0.03833113
0.04543936
8.877018e-15
8.877104e-15
1.110338e-07
0.2790679
8.870976e-15
0.04023541
8.88122e-15
0.09454464
0.05844444
0.1105733
0.1208795
0.04490007
0.02820484
0.01855697
8.875405e-15
8.794098e-14
0.009606117
0.02463005
7.786434e-05
0.00222931
0.001417381
8.880251e-15
0.02738055
0.1136764
0.03687502
8.873453e-15
0.05911476
8.873782e-15
0.08945319
0.1303075
1.155823e-12
0.006995558
0.003335628
8.87857e-15
0.02660857
8.876789e-15
8.88946e-15
3.544793e-05
8.88399e-15
0.02902514
8.878927e-15
8.878109e-15
8.881619e-15
0.1659342
0.1060721
0.120391
3.490572e-14
0.2597431
8.879288e-15
8.873396e-15
2.159376e-05
8.884785e-15
0.01340501
0.06429638
0.04481131
8.880468e-15
8.875727e-15
0.006027381
0.2602152
8.880181e-15
8.869715e-15
0.2657905
8.881645e-15
0.008603202
7.840106e-05
0.108237
0.01591674
0.09362795
0.01835008
0.01392535
0.01572
8.871251e-15
8.872121e-15
2.548626e-05
0.2345685
0.01253656
8.877507e-15
0.0114239
0.000897439
0.0260476
0.04295882
8.881029e-15
0.02952746
0.001449567
8.87108e-15
8.881738e-15
8.881535e-15
8.881784e-15
8.203085e-05
0.006250421
0.0007880023
0.1296843
0.01749681
0.02263934
8.892666e-15
0.01077527
0.02316769
0.01338052
0.0005226935
8.876446e-15
0.0003957652
8.880776e-15
0.05857989
0.1544616
8.88161e-15
0.4425698
0.1667729
8.878744e-15
0.003375894
8.880119e-15
8.87236e-15
8.869486e-15
8.87338e-15
0.05499943
0.02915438
0.06682844
8.873916e-15
0.02999605
0.03338665
0.01604912
3.559893e-09
0.2167156
0.01559666
0.1406953
0.1634816
0.1529814
0.03840981
0.002254847
0.00285466
0.08862691
0.2298737
0.141236
0.03750508
8.877228e-15
0.2594142
0.191347
0.3718768
0.1743564
0.1879555
0.2646204
0.282846
0.1516902
8.881646e-15
0.1453926
0.5359965
0.02787983
8.876868e-15
0.4371301
8.880137e-15
0.2660555
8.875152e-15
0.3543601
8.872512e-15
0.2840228
0.0001558022
8.874438e-15
0.1458722
4.747327e-05
0.1639827
4.950394e-05
0.156673
0.1867333
0.2232989
0.1271957
0.1265487
0.2961989
0.09209025
0.000199283
0.1130574
3.812258e-05
8.876548e-15
1.653458e-14
0.1976694
8.877524e-15
8.875495e-15
6.26856e-05
0.1734678
1.141382e-05
0.2949398
0.1811323
0.07846713
8.878004e-15
0.009971195
0.01970035
0.01976577
0.00133342
0.0008616948
0.0006936474
0.04147083
0.0506721
0.004742099
0.01794233
0.0005156006
0.0005308886
0.0793614
8.879966e-15
0.03958095
0.003528339
0.2666144
8.881659e-15
8.868751e-15
8.876045e-15
0.003173913
0.2134698
2.440062e-14
8.893037e-15
0.02801542
0.004876789
0.04247418
0.2017142
0.2388643
1.394242e-07
0.2772119
0.296551
0.01635081
8.880057e-15
0.2817047
0.008262166
8.871001e-15
0.3385289
0.05211919
8.881236e-15
0.004534283
8.869816e-15
0.02043872
0.2018254
0.003958364
0.0007675158
0.2885084
0.4980653
0.1699703
0.01400967
0.06868478
0.002420201
0.3256741
8.880033e-15
0.00196622
0.006023028
8.871219e-15
8.869027e-15
0.1178737
0.1793359
0.1626623
8.892492e-15
8.881771e-15
0.0002102284
0.2166345
4.077401e-05
0.07631381
0.2239841
0.01561432
0.002430302
0.09502261
0.3305401
0.01825913
8.878879e-15
0.006823079
0.002653873
0.04708384
0.2932991
0.09726389
0.3117075
0.05083621
0.01375166
8.877491e-15
0.0009745727
0.3029516
1.148246e-05
0.002385911
4.081049e-05
0.09865317
0.0006883662
0.007593269
0.0171262
2.957678e-05
1.382692e-15
0.139913
0.1770603
8.87984e-15
3.497113e-15
0.1964396
0.1295625
8.875752e-15
5.710456e-05
0.03237381
0.1268125
4.044496e-12
8.879311e-15
4.908342e-05
0.1052744
0.02512152
0.00602726
8.445539e-05
0.08585578
0.01496041
8.876279e-15
0.01223842
0.02318254
5.045101e-15
0.02358149
2.642648e-15
2.280493e-15
3.746452e-07
2.410978e-14
2.492036e-15
5.049493e-09
1.745492e-15
1.884544e-15
8.406013e-15
8.875238e-15
8.873755e-15
9.546784e-05
8.872288e-15
1.141205e-05
8.877677e-15
3.248559e-05
8.877026e-15
8.875101e-15
0.04508606
0.1100042
1.410692e-15
6.935973e-13
0.0001004641
0.2388133
0.1652505
0.2302498
8.877963e-15
8.876648e-15
8.877693e-15
6.322533e-05
0.05829634
8.879393e-15
1.727187e-07
3.461904e-05
0.0005418008
0.003546811
0.05874264
8.878049e-15
0.08546038
0.0005910726
5.971567e-05
0.1482496
0.00942739
0.275914
0.2689622
0.01662737
0.1539368
0.6007115
8.879376e-15
0.03917469
0.01442499
6.518098e-05
8.877957e-15
0.008087851
0.01437354
0.4533258
0.1729625
0.2315362
0.1958701
8.882911e-15
0.2453806
8.878686e-15
0.08826869
0.1340725
6.025827e-05
7.612392e-05
0.003106974
0.0002477276
0.004471431
8.877359e-15
0.07337776
0.009701087
0.05116791
0.2496172
8.877844e-15
0.01935013
0.002859146
0.06467777
8.878746e-15
0.05352113
0.0001531509
8.873818e-15
0.05166879
0.02144246
0.2693734
8.876573e-15
0.1308402
0.2579601
0.1430726
0.02117118
0.211007
9.567894e-10
0.2374983
8.870859e-15
0.1028693
0.3020037
8.870278e-15
8.87825e-15
3.460368e-05
8.873664e-15
0.3389155
0.0006245802
0.003616797
8.880101e-15
0.007825572
0.2997939
8.890569e-15
0.1536516
0.03850032
7.795139e-05
0.03691673
4.413064e-05
8.87598e-15
0.0006484505
0.08344129
0.04886989
8.878914e-15
8.872536e-15
0.04148447
8.89266e-15
8.876408e-15
0.2543137
0.2394634
0.04955576
0.2266524
8.872548e-15
0.294285
0.0005941436
0.01427045
0.001158852
8.875799e-15
3.173211e-05
0.2362435
0.003045767
3.224155e-05
0.2549722
8.892718e-15
8.870607e-15
8.870055e-15
0.3608008
8.873532e-15
0.2418855
0.0001599368
0.2978259
8.877666e-15
8.875725e-15
0.0007778513
0.1899521
0.01634374
0.09007387
0.04337659
8.878629e-15
8.874568e-15
0.3721914
0.03463048
0.01617087
8.878325e-15
7.446817e-06
8.879402e-15
0.1410493
8.881732e-15
8.881723e-15
8.881675e-15
8.881807e-15
0.690128
0.05537473
0.0001593751
0.2330173
3.138081e-05
8.892919e-15
8.892278e-15
0.1021857
8.891777e-15
8.876132e-15
0.1594814
0.001836929
8.87563e-15
0.0003922487
0.04663999
8.873718e-15
0.07756211
0.2218502
0.08455882
0.08087493
8.890769e-15
0.2747242
0.0001201503
0.1312148
8.893292e-15
0.04126086
8.876806e-15
0.1224763
8.878032e-15
1.094323
8.881666e-15
0.140523
0.09127611
0.1319178
8.8739e-15
8.870265e-15
0.1096546
8.892047e-15
0.3095805
0.09777653
0.3770687
8.872682e-15
0.3538813
8.874744e-15
8.87471e-15
0.002865306
8.878111e-15
8.876051e-15
0.2288005
0.373057
8.888855e-15
0.01102827
0.00206731
0.05502695
1.397672e-14
8.875401e-15
0.05582931
0.2115813
8.877932e-15
0.04976722
0.5839541
0.1755252
0.6694079
0.002779428
0.2291658
0.3179264
0.4682414
0.2518899
3.138054e-05
8.869827e-15
8.877656e-15
0.01153471
0.3664061
0.4841075
0.009944753
8.870384e-15
2.001075e-05
0.246333
0.08033986
0.07205263
0.02664005
8.871254e-15
8.876856e-15
8.878062e-15
8.878351e-15
0.0002283234
0.06669473
0.1250285
8.890199e-15
0.09491
8.878644e-15
8.881555e-15
0.1689889
8.874844e-15
0.1367126
0.03465891
1.030981e-09
8.878716e-15
1.570222e-05
0.227295
0.0001311766
8.869102e-15
0.181887
1.466881e-14
0.001076756
0.0002890233
0.001068171
0.6856236
8.874077e-15
1.241441
0.2616678
0.5403659
0.1156354
0.1490425
8.872465e-15
4.367356e-05
8.878763e-15
4.599063e-05
0.5232005
8.881396e-15
2.702343e-06
8.880204e-15
0.1330859
8.880237e-15
0.06654892
0.04703398
0.1384462
0.1415049
5.484919e-05
0.5497653
0.1223665
0.03870298
8.880253e-15
2.300743e-14
1.057478e-14
8.881701e-15
8.88168e-15
8.881701e-15
8.88076e-15
8.880819e-15
8.88076e-15
8.880819e-15
0.0008075361
0.001075567
0.002143243
0.003162643
0.0009850439
0.001265647
0.002621036
8.885157e-15
8.887173e-15
8.882608e-15
8.884758e-15
8.885334e-15
9.094614e-15
8.8828e-15
8.881301e-15
8.881377e-15
8.881301e-15
8.880479e-15
8.880569e-15
8.880479e-15
8.88057e-15
0.07439844
0.07036118
0.1498761
0.5018757
0.0462213
0.06300016
0.04211597
0.002925489
0.005592867
0.002438229
0.009585247
0.003276547
0.009087631
0.002805351
8.87616e-15
8.875405e-15
4.349082e-13
7.351828e-08
8.876159e-15
8.874521e-15
8.960007e-15
0.06572489
0.06343833
0.04624095
0.3106285
0.09438372
0.2923531
0.08490212
0.001892866
0.004133893
0.00141191
0.003253749
0.002034828
0.004805765
0.001282019
8.892422e-15
8.892741e-15
8.892395e-15
8.892654e-15
8.892422e-15
8.892741e-15
8.892395e-15
0.0009965821
0.001822177
0.0005839042
0.001962971
0.001228381
0.002370504
0.0007000183
0.249666
0.2545565
0.2551963
0.2507948
0.2447146
0.2494112
0.2491353
8.881317e-15
8.8802e-15
8.880745e-15
8.880537e-15
8.880197e-15
8.880743e-15
8.880537e-15
0.01527855
0.008714053
0.02861497
0.0129812
0.01393653
0.01440994
0.03187194
0.06798155
0.09196733
0.06705723
0.1042646
0.1361885
0.1083553
0.06843754
0.3310624
0.05107914
0.4399235
0.06185293
0.05268031
0.04727306
0.08633859
0.3261745
0.2961375
0.3288169
0.5681009
0.4484556
0.4778739
0.5444729
8.880057e-15
8.879259e-15
8.879348e-15
8.880124e-15
8.880057e-15
8.879259e-15
8.879348e-15
8.878671e-15
8.879573e-15
8.878963e-15
8.879796e-15
8.878671e-15
8.879573e-15
8.878963e-15
0.06332253
0.0592112
0.04948885
0.04798394
0.07706469
0.06110216
0.06143103
0.04145763
0.09727445
0.07839849
0.04207297
0.0551816
0.1016575
0.07615958
8.877673e-15
8.876534e-15
8.87714e-15
8.877018e-15
8.877673e-15
8.876534e-15
8.87714e-15
8.877588e-15
8.877645e-15
8.877038e-15
8.877104e-15
8.877588e-15
8.877645e-15
8.877038e-15
2.110577e-09
8.876033e-15
2.37387e-08
1.670742e-07
8.876024e-15
1.008617e-14
3.268129e-10
0.3559219
0.1753618
0.4492076
0.4494377
0.0699397
0.4214216
0.05107117
8.870717e-15
8.871643e-15
8.87128e-15
8.870975e-15
8.870716e-15
8.871642e-15
8.87128e-15
0.3077852
0.1460802
0.4331971
0.05819465
0.08491485
0.5264384
0.06852437
8.881128e-15
8.881219e-15
8.881128e-15
8.880401e-15
8.880328e-15
8.8804e-15
8.880326e-15
0.3969592
0.4372349
0.4884013
0.07529338
0.04380761
0.0673679
0.05232786
0.06881015
0.1075389
0.07292145
0.02010368
0.03265051
0.02832947
0.04434609
0.07153381
0.1292107
0.05933971
0.1240486
0.09487225
0.1212657
0.1415075
0.1073464
0.1291131
0.09708988
0.1135259
0.09848017
0.1336698
0.09561074
0.03913839
0.05698324
0.06780765
0.07400435
0.0670431
0.08050267
0.07071211
0.03054034
0.03887792
0.03897811
0.03176306
0.04754472
0.05689064
0.04657801
0.04856322
0.1515122
0.03093432
0.03236948
0.1012939
0.1643376
0.06977511
8.874865e-15
8.874996e-15
8.875525e-15
8.875405e-15
8.874865e-15
8.874996e-15
8.875525e-15
8.877698e-15
8.877218e-15
3.824344e-12
8.87764e-15
8.877703e-15
1.001058e-13
8.876344e-15
0.00597639
0.02754256
0.02723533
0.00601398
0.009420061
0.01933044
0.01106079
0.02052657
0.1088927
0.08626506
0.1095587
0.03224451
0.1694218
0.2206211
2.222697e-06
1.609117e-05
3.215257e-05
3.011256e-05
7.667093e-07
5.887247e-06
1.502209e-05
0.0005398904
0.001054787
0.001435742
0.002774941
0.0005905066
0.001259654
0.001651245
0.001503494
0.0003319271
0.0004650102
0.001620901
0.001659725
0.0003531202
0.0004525279
8.879496e-15
8.880241e-15
8.879524e-15
8.880251e-15
8.879496e-15
8.880242e-15
8.879524e-15
0.1070933
0.05570507
0.04551394
0.02150917
0.1931158
0.03696648
0.04158277
0.09152959
0.1026417
0.0669823
0.1154621
0.5516373
0.1027408
0.07947232
0.01121806
0.08809672
0.1190025
0.01307766
0.00999895
0.08306528
0.1126885
8.873975e-15
8.873393e-15
8.874038e-15
8.873453e-15
8.873975e-15
8.873393e-15
8.874038e-15
0.4858994
0.06863164
0.0601824
0.056963
0.06641949
0.05969021
0.0798316
8.873189e-15
8.873892e-15
8.873308e-15
8.873782e-15
8.873188e-15
8.873892e-15
8.873308e-15
0.07313993
0.06173866
0.07634418
0.09756871
0.08090243
0.06093729
0.08351931
0.1632982
0.1674484
0.1148595
0.1726108
0.07431192
0.2456766
0.1711701
2.853319e-06
8.880353e-15
8.881062e-15
8.877074e-15
8.87766e-15
8.880355e-15
8.881023e-15
0.01780508
0.008827773
0.01329902
0.007878577
0.02225766
0.01116089
0.01664469
0.001409014
0.00199362
0.003750515
0.003921025
0.001633723
0.002207709
0.004036928
8.878549e-15
8.879386e-15
8.879153e-15
8.87857e-15
8.878549e-15
8.879386e-15
8.879153e-15
0.02207886
0.01108114
0.01289701
0.03848965
0.02904561
0.01500414
0.01043453
8.876731e-15
8.877418e-15
8.876241e-15
8.876789e-15
8.876731e-15
8.877418e-15
8.876241e-15
8.886487e-15
8.888283e-15
8.890043e-15
8.889461e-15
8.886492e-15
8.888283e-15
8.890043e-15
3.635231e-05
3.544545e-05
3.634569e-05
8.874092e-15
8.874621e-15
8.874092e-15
8.874621e-15
8.888008e-15
8.888798e-15
8.885188e-15
8.883984e-15
8.888004e-15
8.888798e-15
8.885198e-15
0.08084229
0.04322457
0.1286882
0.03108349
0.08896593
0.04580502
0.1031761
8.879074e-15
1.872e-14
8.878342e-15
8.878929e-15
8.879076e-15
1.752707e-14
8.878347e-15
8.878738e-15
8.878132e-15
8.878744e-15
8.878109e-15
8.878738e-15
8.878132e-15
8.878744e-15
8.881638e-15
8.881619e-15
8.881638e-15
8.88085e-15
8.880798e-15
8.88085e-15
8.880798e-15
0.1517509
0.1726715
0.156055
0.2310802
0.2402463
0.232968
0.234691
0.02477418
0.165641
0.1077144
0.02594844
0.05558626
0.02725979
0.03247551
0.1283273
0.1057504
0.6493434
0.1292063
0.1317669
0.08572649
0.1069608
1.105017e-14
8.877145e-15
8.876066e-15
1.435515e-14
8.877488e-15
1.07857e-14
6.152842e-09
0.2496292
0.2548402
0.2555609
0.2568791
0.2497089
0.255878
0.2515544
8.879184e-15
2.964192e-14
8.878635e-15
9.916651e-15
9.183266e-15
3.761492e-14
3.14504e-14
8.873604e-15
8.872971e-15
8.872679e-15
8.873396e-15
8.873604e-15
8.872971e-15
8.872679e-15
0.000140478
7.442975e-05
6.029623e-05
2.141061e-05
0.0001443441
7.056023e-05
6.133977e-05
8.883162e-15
8.887145e-15
8.88545e-15
8.884815e-15
8.883398e-15
8.887162e-15
8.885452e-15
0.04520497
0.03287052
0.01380057
0.01588715
0.01569823
0.01933034
0.06718096
0.04330994
0.1052284
0.08830063
0.08060154
0.09381823
0.1302347
0.1203755
0.0712151
0.04049549
0.07995822
0.4066432
0.06157064
0.08264091
0.06194948
8.8803e-15
8.880467e-15
8.880299e-15
8.879574e-15
8.879743e-15
8.879573e-15
8.879743e-15
8.876295e-15
8.875752e-15
8.87632e-15
8.875727e-15
8.876295e-15
8.875752e-15
8.87632e-15
0.003759222
0.001856536
0.01207771
0.005357704
0.003340359
0.00172931
0.01098366
0.2505518
0.2011818
0.1316237
0.1473791
0.222765
0.1381922
0.1578938
8.879462e-15
8.879417e-15
8.880218e-15
8.880181e-15
8.879462e-15
8.879417e-15
8.880218e-15
8.870642e-15
8.870357e-15
5.457895e-13
8.869358e-15
8.87064e-15
8.870289e-15
5.006044e-13
0.240105
0.2988338
0.05516146
0.3476583
0.3425565
0.3501497
0.4122491
8.881651e-15
8.881645e-15
8.881651e-15
8.880863e-15
8.880866e-15
8.880863e-15
8.880866e-15
0.005592646
0.004338959
0.009048563
0.0124259
0.00549227
0.005591115
0.007653312
1.503761e-05
2.961638e-05
0.000124264
0.0001149637
2.174041e-05
4.056502e-05
0.0001797057
0.02069037
0.1672598
0.1444273
0.146296
0.02616335
0.2235075
0.1847298
0.02631687
0.05151473
0.01794545
0.04010198
0.07236419
0.03053001
0.05032984
0.1305184
0.1176332
0.08204066
0.1361962
0.2039564
0.0450069
0.1307198
0.0204377
0.06606826
0.02453809
0.02824229
0.01618881
0.06897006
0.0240193
0.03179148
0.01543408
0.06137851
0.06845249
0.01896396
0.1084478
0.0149384
0.04280639
0.05225973
0.08455796
0.01966162
0.0176056
0.05779274
0.01579818
8.871888e-15
8.871141e-15
8.871841e-15
8.87125e-15
8.871887e-15
8.871137e-15
8.871842e-15
8.871604e-15
8.872342e-15
8.871835e-15
8.872121e-15
8.871604e-15
8.872342e-15
8.871835e-15
0.0001060979
8.345743e-05
2.044341e-05
3.199346e-05
0.0001440769
0.0001051913
2.500934e-05
0.2315188
0.231671
0.2323664
0.2331274
0.2288531
0.2317428
0.2304597
0.03417902
0.02474574
0.03372288
0.01669665
0.06179155
0.02309682
0.02853806
8.876933e-15
8.877542e-15
8.876983e-15
8.877507e-15
8.876933e-15
8.877542e-15
8.876983e-15
0.03337116
0.03198612
0.01482791
0.02519527
0.0128436
0.02699212
0.01262812
0.000869171
0.002902027
0.002549551
0.0008119722
0.0007818532
0.002632073
0.002339362
0.0186881
0.03478062
0.04620856
0.0167223
0.02985336
0.05494708
0.05756125
0.05280272
0.06824053
0.07781609
0.06266885
0.07120136
0.04246347
0.114451
8.88091e-15
8.881029e-15
8.88091e-15
8.880139e-15
8.880242e-15
8.880133e-15
8.880239e-15
0.02451697
0.0259534
0.01490335
0.04416424
0.03641637
0.07812481
0.01580038
0.0008651084
0.0005877231
0.001112467
0.002174327
0.001319971
0.0008565558
0.001597496
8.871736e-15
8.871909e-15
8.871349e-15
8.87108e-15
8.871737e-15
8.871909e-15
8.871348e-15
8.881754e-15
8.881738e-15
8.881754e-15
8.880927e-15
8.880881e-15
8.880927e-15
8.880881e-15
8.881462e-15
8.881535e-15
8.881462e-15
8.8808e-15
8.880671e-15
8.880798e-15
8.880677e-15
8.881779e-15
8.881784e-15
8.881779e-15
8.881006e-15
8.881006e-15
8.881006e-15
8.881006e-15
0.0001354869
0.0003603737
0.0005251879
0.0001028184
0.0001557248
0.0004407671
0.0006089549
0.01207271
0.004793622
0.009395316
0.008294844
0.010529
0.007831524
0.01305198
0.001670368
0.000599018
0.001257669
0.0009134659
0.002120232
0.0006316187
0.001413911
0.173851
0.2246554
0.2133497
0.2821972
0.2582739
0.3717938
0.3601262
0.008815387
0.01268589
0.006198903
0.02614651
0.0138936
0.02124395
0.01084161
0.0186929
0.02213342
0.05887268
0.1270461
0.01784949
0.1947887
0.03194892
8.892666e-15
8.887814e-15
8.884477e-15
8.892344e-15
8.887812e-15
8.884473e-15
8.892344e-15
0.01071412
0.007945596
0.01542198
0.02746031
0.01311867
0.009085038
0.02112493
0.02212856
0.008827799
0.008537163
0.02923449
0.03582078
0.01801203
0.01234755
0.0242923
0.01985437
0.01029208
0.0228671
0.0426042
0.03228987
0.01724697
0.0002677034
0.0009441423
0.001729929
0.0004792256
0.0002596613
0.0008690026
0.001611643
8.876973e-15
8.876473e-15
8.875819e-15
8.876446e-15
8.876973e-15
8.876473e-15
8.875819e-15
0.000889653
0.0002598666
0.0006248789
0.0003769237
0.0008821463
0.000213151
0.0005373977
8.880627e-15
8.880776e-15
8.880627e-15
8.880027e-15
8.879897e-15
8.880027e-15
8.879897e-15
0.06918449
0.08223421
0.4924852
0.5386624
0.5505359
0.5222107
0.5301155
0.05960441
0.0220939
0.2552761
0.03337646
0.04597894
0.03653789
0.1946708
8.881578e-15
8.88161e-15
8.881578e-15
8.880691e-15
8.880543e-15
8.880691e-15
8.880543e-15
0.4354042
0.05444206
0.6323095
0.4169192
0.413567
0.05923802
0.6153452
0.03124287
0.2336587
0.2359023
0.03373506
0.02252782
0.04685191
0.3379893
8.878104e-15
8.878208e-15
8.8786e-15
8.878743e-15
8.878104e-15
8.878215e-15
8.878597e-15
0.002621896
0.005507817
0.007056625
0.004578237
0.003117237
0.007076311
0.01006204
8.880119e-15
8.880119e-15
8.88011e-15
8.87936e-15
8.879231e-15
8.879358e-15
8.879228e-15
8.872947e-15
8.872489e-15
8.873063e-15
8.872359e-15
8.872947e-15
8.872489e-15
8.873063e-15
8.8702e-15
8.869865e-15
8.869393e-15
1.350073e-13
8.870199e-15
8.869925e-15
1.204435e-12
8.872653e-15
8.873208e-15
8.872857e-15
8.873379e-15
8.872653e-15
8.873208e-15
8.872857e-15
0.1039148
0.04769442
0.09311362
0.01683934
0.02155983
0.07046085
0.1193679
0.02294387
0.03472953
0.05954852
0.01529285
0.01643919
0.04605161
0.01679432
0.04385565
0.2730243
0.3127412
0.2606622
0.04702485
0.0620371
0.03690409
8.873763e-15
8.874319e-15
8.87446e-15
8.873916e-15
8.873763e-15
8.874319e-15
8.87446e-15
0.0119628
0.01409075
0.01598281
0.05509693
0.02397466
0.05748966
0.01405377
0.01869005
0.03094667
0.04506977
0.04287058
0.02794712
0.04616316
0.07141042
0.007829088
0.01219561
0.0366449
0.01653245
0.008324378
0.0226478
0.04008223
8.875341e-15
8.870331e-15
3.945549e-06
2.998814e-08
8.87536e-15
8.870141e-15
1.008445e-05
0.2242393
0.2283367
0.2227757
0.2191807
0.2237318
0.226797
0.2236475
0.01550897
0.01543558
0.007148565
0.007083571
0.01500176
0.006584598
0.006649952
0.1547445
0.128535
0.1683061
0.1818016
0.07452712
0.1247789
0.1430574
0.1507766
0.1634852
0.1509914
0.1638088
0.1514471
0.1635977
0.1516954
0.1703215
0.1457338
0.1577049
0.1466188
0.1555513
0.1463356
0.1547598
0.04558031
0.07164187
0.05728304
0.05357503
0.03629954
0.09862645
0.08502815
0.0004719902
0.0006188272
0.002378696
0.002046456
0.0004234212
0.0005466425
0.002162155
0.001330773
0.001031157
0.002192131
0.003386522
0.001770145
0.00127458
0.003045701
0.03309081
0.1106001
0.1019311
0.1431288
0.191507
0.2322912
0.1678021
0.2271138
0.2297009
0.2310437
0.2275921
0.226206
0.2279449
0.2285924
0.1266185
0.1313454
0.1439672
0.14248
0.1270277
0.1302689
0.1448325
0.0332461
0.1638843
0.1116821
0.0930488
0.1633469
0.1903848
0.1311379
8.877904e-15
8.878229e-15
8.877564e-15
8.877228e-15
8.877904e-15
8.878229e-15
8.877564e-15
0.3191991
0.2610035
0.319628
0.04987159
0.06113755
0.04562043
0.04590567
0.1795729
0.1930983
0.1819463
0.2596185
0.2532463
0.2523559
0.2453459
0.27689
0.327817
0.410089
0.3670131
0.2838553
0.3602944
0.4532529
0.179279
0.1855223
0.1901375
0.1830657
0.1864332
0.1823114
0.1858657
0.1877175
0.1900789
0.1889506
0.1872384
0.187272
0.1885018
0.1874342
0.2567449
0.2747212
0.2694233
0.2637959
0.2604378
0.2559965
0.2558649
0.2805973
0.2968468
0.2809096
0.2501099
0.2565959
0.2504629
0.2538723
0.1202622
0.1448714
0.1635422
0.1532506
0.1224022
0.1454495
0.1637723
8.88164e-15
8.881646e-15
8.88164e-15
8.880786e-15
8.880836e-15
8.880786e-15
8.880836e-15
0.1440474
0.1448311
0.1451887
0.1457108
0.1432907
0.1449355
0.1456211
0.4923514
0.316904
0.197923
0.575525
0.5295193
0.08512073
0.04961638
0.01744611
0.03666859
0.01677917
0.03749821
0.0217342
0.04551234
0.02743159
8.87744e-15
8.877474e-15
8.876896e-15
8.876868e-15
8.877439e-15
8.877474e-15
8.876896e-15
0.3894784
0.05733385
0.04415193
0.4313328
0.4220828
0.12736
0.0808006
8.883567e-15
8.878571e-15
8.880479e-15
8.880137e-15
8.883563e-15
8.878568e-15
8.880475e-15
0.3177457
0.2762263
0.327058
0.4183175
0.07026132
0.3990679
0.4464325
8.875186e-15
8.874559e-15
8.874615e-15
8.875152e-15
8.875186e-15
8.874559e-15
8.874615e-15
0.3331703
0.05498283
0.05367651
0.3626249
0.4176148
0.4699138
0.09009353
8.873156e-15
8.873242e-15
8.87252e-15
8.872512e-15
8.873155e-15
8.873242e-15
8.872519e-15
0.3188236
0.04914079
0.04197613
0.5618947
0.4990684
0.06682402
0.0457168
1.489421e-05
0.0001858699
4.679441e-05
0.0001362176
1.357945e-05
0.0001698707
4.593323e-05
8.875161e-15
8.875145e-15
8.874508e-15
8.874438e-15
8.875161e-15
8.875145e-15
8.874508e-15
0.144942
0.1454073
0.1460199
0.1463661
0.1455019
0.1460051
0.1465587
4.835048e-05
4.746105e-05
4.831688e-05
5.008036e-06
8.09108e-06
5.037938e-06
8.122615e-06
0.1498092
0.150239
0.1664792
0.1650413
0.1506369
0.1511039
0.1684395
5.148115e-05
4.941199e-05
5.120028e-05
2.297098e-05
1.255713e-05
2.203107e-05
1.236294e-05
0.02996831
0.09087027
0.01925925
0.1004592
0.05813616
0.05954328
0.02117058
0.1836895
0.1878441
0.1847203
0.1885413
0.1912475
0.1897532
0.1923499
0.2800142
0.2760852
0.2204895
0.352346
0.06280177
0.05539872
0.03401213
0.1422192
0.1305158
0.1424081
0.1300752
0.1430313
0.1303133
0.1439356
0.143374
0.1385769
0.122315
0.124065
0.1421448
0.1369853
0.1194036
0.3334128
0.2961686
0.2957369
0.2441122
0.2411896
0.2441204
0.2394655
0.0322344
0.2392455
0.1086036
0.08602498
0.05497832
0.2217957
0.1007087
0.0001052052
0.0005320378
0.0002532695
0.0002009443
0.0001060382
0.0006027394
0.0002905653
0.1343449
0.1170923
0.1083933
0.1144803
0.1358248
0.1181525
0.1097242
3.913462e-05
3.811962e-05
3.912769e-05
8.873577e-15
8.873071e-15
8.873577e-15
8.873071e-15
8.877856e-15
8.876921e-15
8.87773e-15
8.876978e-15
8.87791e-15
8.876921e-15
8.877729e-15
8.877369e-15
5.10927e-07
4.354549e-08
1.70396e-06
8.87782e-15
2.435409e-06
8.877411e-15
0.1975278
0.2003765
0.2000002
0.1930211
0.1983925
0.1932203
0.1988313
8.877824e-15
8.877261e-15
8.877834e-15
1.042519e-10
8.877822e-15
8.875279e-15
8.87803e-15
8.87428e-15
8.875544e-15
8.873731e-15
8.875522e-15
3.038801e-14
8.875569e-15
8.87425e-15
2.392412e-14
4.55397e-05
6.016368e-14
5.378487e-05
1.956091e-14
3.731309e-05
1.76554e-14
0.1498736
0.1703893
0.1511177
0.1747258
0.1510097
0.1720602
0.1523618
8.877729e-15
4.457747e-05
8.87776e-15
5.078377e-08
8.877453e-15
4.184763e-05
8.877795e-15
0.0317606
0.04011399
0.03488543
0.04623395
0.06105979
0.06856694
0.06585578
0.1807392
0.1818716
0.1813893
0.1999871
0.1949715
0.2006304
0.1961182
0.08252789
0.1202509
0.04763541
0.08049173
0.1236638
0.05088085
0.08387944
8.875765e-15
6.261347e-14
8.877599e-15
8.877247e-15
8.875524e-15
8.877318e-15
8.87734e-15
0.01335791
0.01471046
0.03266908
0.03084969
0.04364742
0.03277286
0.05287436
0.03247304
0.02027317
0.03744811
0.02725039
0.04471639
0.02938566
0.02582797
0.008828818
0.02554632
0.01095768
0.01116519
0.01265096
0.02836433
0.01514538
0.00362658
0.001430568
0.004556622
0.001266551
0.003311482
0.001208805
0.004368117
0.003909991
0.001070216
0.00461639
0.0009536355
0.003410231
0.001092163
0.004106443
0.002853759
0.0007566896
0.003074071
0.000800868
0.002593831
0.0008458448
0.003188067
0.03290649
0.05771095
0.06707475
0.06687501
0.0537346
0.09042613
0.1082359
0.07807986
0.0604372
0.05497925
0.07452384
0.09472802
0.1003659
0.07489473
0.005467268
0.01456552
0.01362189
0.004564431
0.00586371
0.01201924
0.01517518
0.07486586
0.02506332
0.03061238
0.1493847
0.01914902
0.2096822
0.02890786
0.0002329258
0.0001456821
0.000289975
0.0007922172
0.000348313
0.0002184278
0.0004372373
0.002164985
0.0005803253
0.002433073
0.0005811877
0.002228018
0.0006978735
0.00248672
0.09369684
0.1264132
0.1032913
0.1453267
0.09930595
0.1296111
0.4483389
8.8793e-15
8.879177e-15
8.880049e-15
8.879966e-15
8.8793e-15
8.879177e-15
8.880049e-15
0.1242565
0.03311598
0.030476
0.02802856
0.05401725
0.04409809
0.05764026
0.006728764
0.005531681
0.002613486
0.005502343
0.01157457
0.008695715
0.003998228
0.2609765
0.282493
0.2771479
0.1865922
0.1912108
0.1850153
0.1904759
8.881671e-15
8.881659e-15
8.881671e-15
8.880839e-15
8.880741e-15
8.880838e-15
8.880741e-15
7.46969e-06
8.868694e-15
8.869417e-15
8.86837e-15
8.315404e-06
8.869244e-15
8.869416e-15
8.87537e-15
8.875649e-15
8.875066e-15
8.876045e-15
8.87537e-15
8.875649e-15
8.875066e-15
0.01482075
0.005964105
0.0228703
0.003152232
0.01454153
0.005714016
0.02178493
0.2065239
0.2001092
0.1932358
0.267107
0.2612779
0.2562081
0.2476066
5.633604e-11
1.482851e-14
8.877161e-15
1.257048e-14
8.87611e-15
1.696227e-14
8.876844e-15
8.892488e-15
8.892862e-15
8.892609e-15
8.893037e-15
8.892488e-15
8.892862e-15
8.892609e-15
0.04035954
0.03955178
0.02943942
0.07152343
0.06765658
0.08300249
0.4739948
0.00452992
0.01056453
0.01344344
0.004363889
0.004111566
0.01233752
0.01116318
0.04786053
0.1071884
0.04100282
0.03081754
0.04938606
0.1141714
0.04638789
0.2056549
0.1781451
0.1818177
0.205562
0.2078507
0.1743891
0.1774958
0.04225735
0.05591037
0.1251487
0.2070939
0.03595866
0.04542657
0.3059076
1.094583e-05
3.277883e-10
9.588902e-06
5.868818e-06
3.122086e-05
5.348458e-06
2.853871e-05
0.2858188
0.2941446
0.3007591
0.1673152
0.1651126
0.1663966
0.1671701
0.04594835
0.03914287
0.3957734
0.3703611
0.4433081
0.3732714
0.4392018
0.006368213
0.00385557
0.00170871
0.01794959
0.006700461
0.004286933
0.00176458
8.878992e-15
8.879353e-15
8.879828e-15
8.880057e-15
8.87898e-15
8.879353e-15
8.879767e-15
0.2817808
0.2877154
0.2927183
0.2330413
0.2378671
0.2317782
0.2384301
0.003947717
0.009974284
0.00337383
0.006778694
0.004052438
0.0117207
0.003769771
8.871116e-15
8.87166e-15
8.871693e-15
8.871001e-15
8.871111e-15
8.871658e-15
8.871692e-15
0.3334631
0.2435991
0.2381188
0.4971877
0.5275503
0.3428259
0.4170025
0.1627124
0.289779
0.02938666
0.3709694
0.1738855
0.06062297
0.0326819
8.881236e-15
8.88049e-15
8.88027e-15
8.879818e-15
8.88049e-15
8.88027e-15
8.879818e-15
0.003393445
0.001629323
0.002111923
0.007063788
0.005019517
0.002238438
0.003144547
8.870006e-15
8.870403e-15
8.870531e-15
8.869814e-15
8.870005e-15
8.870402e-15
8.870532e-15
0.0146411
0.008268469
0.03692748
0.0160395
0.01508511
0.008205672
0.03676338
0.2092257
0.2168274
0.2082407
0.1978505
0.2097956
0.2144252
0.2037451
0.009255115
0.003341904
0.005158655
0.005348477
0.008142596
0.005245177
0.01148586
0.0004571703
0.0009428636
0.0003455932
0.001018767
0.0006448256
0.001301782
0.0004608773
0.2262516
0.2129611
0.193145
0.1874707
0.2175865
0.1294736
0.1890267
0.3595779
0.5250625
0.4911456
0.4349291
0.5081969
0.4679075
0.489167
0.1936618
0.1182435
0.1418416
0.03013895
0.03529222
0.06598984
0.01953711
0.0195101
0.0052698
0.005422556
0.0101689
0.02068704
0.006444671
0.006786187
0.0263598
0.1068389
0.1359577
0.09178815
0.1298994
0.02195085
0.1763848
0.001946676
0.0014233
0.001209205
0.003795616
0.002991355
0.002231371
0.001875335
0.3186091
0.2345584
0.2352154
0.4701126
0.468024
0.3886189
0.04166318
8.879034e-15
8.87988e-15
8.879237e-15
8.880033e-15
8.879034e-15
8.879879e-15
8.879237e-15
0.0003730204
0.0006234204
0.002886503
0.001825785
0.0003369795
0.0005557555
0.002632617
0.007040195
0.01369495
0.02067084
0.005981962
0.01043761
0.01693702
0.01850506
8.871303e-15
8.871941e-15
8.871905e-15
8.87123e-15
8.871307e-15
8.87194e-15
8.871907e-15
8.869454e-15
8.869579e-15
8.868099e-15
8.869025e-15
8.869336e-15
8.869667e-15
8.867361e-15
0.157531
0.03930802
0.05269986
0.1761952
0.2873516
0.242391
0.2377876
0.1911229
0.1964041
0.1789631
0.1709942
0.1887097
0.1983699
0.1707483
0.1301372
3.99232e-10
5.044892e-12
0.1274316
0.1447049
0.1557403
0.1787883
8.891633e-15
8.892246e-15
8.892215e-15
8.892493e-15
8.891633e-15
8.892248e-15
8.892215e-15
8.881778e-15
8.881771e-15
8.881778e-15
8.880963e-15
8.880989e-15
8.880963e-15
8.880989e-15
0.0003755559
0.0007514273
0.001060912
0.0002285364
0.0003951897
0.000836138
0.001168986
0.02508422
0.03120537
0.0277014
0.3049026
0.3204463
0.2637518
0.2406684
4.213368e-05
4.077112e-05
4.212756e-05
8.872568e-15
8.872067e-15
8.872568e-15
8.872067e-15
0.04685126
0.08952677
0.5019119
0.5803095
0.05539149
0.1454976
0.1190583
0.2070465
0.2284519
0.2154175
0.2175036
0.1993817
0.2238493
0.2098409
0.02105501
0.09367523
0.04375211
0.01613176
0.02397467
0.0403346
0.03976962
0.000531861
0.0005360016
0.002226528
0.002231973