/*--------------------------------*- C++ -*----------------------------------*\
| =========                 |                                                 |
| \\      /  F ield         | OpenFOAM: The Open Source CFD Toolbox           |
|  \\    /   O peration     | Version:  1912                                  |
|   \\  /    A nd           | Website:  www.openfoam.com                      |
|    \\/     M anipulation  |                                                 |
\*---------------------------------------------------------------------------*/
FoamFile
{
    version     2.0;
    format      ascii;
    class       volScalarField;
    location    "40000/fluid";
    object      km;
}
// * * * * * * * * * * * * * * * * * * * * * * * * * * * * * * * * * * * * * //

dimensions      [0 2 -2 0 0 0 0];


internalField   nonuniform List<scalar> 
4960
(
1e-15
0.0003011059
1e-15
1e-15
0.05481379
0.001095564
1e-15
0.058054
0.0003660811
1e-15
0.0001803476
0.2583208
1e-15
0.001686082
0.07347386
0.05198346
0.04734699
1e-15
1e-15
0.05196437
0.04899751
1e-15
1e-15
1.25207e-08
0.04823351
1e-15
0.04524549
1e-15
0.06117688
0.00693794
0.08589298
0.1013908
0.0689101
0.02353596
0.01590798
1e-15
9.905906e-15
0.001127842
0.009219869
8.855309e-06
0.0002514457
0.0001608569
1e-15
0.02848957
0.103376
0.004209829
1e-15
0.05863623
1e-15
0.06375314
0.01469996
1.302022e-13
0.0007889912
0.0003762431
1e-15
0.003000881
1e-15
1e-15
3.995135e-06
1e-15
0.0216651
1e-15
1e-15
1e-15
0.1659342
0.01201369
0.1201202
3.931983e-15
0.2597431
1e-15
1e-15
2.431919e-06
1e-15
0.003968209
0.007252777
0.03406429
1e-15
1e-15
0.0007422792
0.2602152
1e-15
1e-15
0.02998223
1e-15
0.001324508
8.835672e-06
0.01220877
0.006048243
0.01056038
0.004089958
0.006130462
0.008408688
1e-15
1e-15
2.876108e-06
0.2345685
0.006512819
1e-15
0.002434435
0.0001086046
0.002937503
0.004845508
1e-15
0.003329689
0.0001693975
1e-15
1e-15
1e-15
1e-15
9.251779e-06
0.000709507
8.88378e-05
0.0215623
0.001972946
0.009286587
1e-15
0.002544808
0.002613161
0.001640415
5.892638e-05
1e-15
4.539688e-05
1e-15
0.05857447
0.01742281
1e-15
0.04991752
0.01881057
1e-15
0.000384218
1e-15
1e-15
1e-15
1e-15
0.007124837
0.004978391
0.02375303
1e-15
0.005347484
0.003864997
0.001809954
4.012369e-10
0.2167156
0.001763029
0.1406953
0.1634809
0.1529814
0.004331934
0.000255309
0.0003218518
0.009996002
0.2298737
0.1412149
0.01261181
1e-15
0.02946651
0.191347
0.04194242
0.1743564
0.1879555
0.2646204
0.2912526
0.1516902
1e-15
0.1452556
0.06043096
0.00314475
1e-15
0.04929114
1e-15
0.03001255
1e-15
0.04209627
1e-15
0.03796079
1.769035e-05
1e-15
0.1456908
5.353426e-06
0.1639807
5.583105e-06
0.07557562
0.1867333
0.02519777
0.1271817
0.1264258
0.2824602
0.01039517
2.24745e-05
0.1127645
4.297184e-06
1e-15
1.863635e-15
0.1976694
1e-15
1e-15
7.079903e-06
0.1734678
1.286057e-06
0.03948091
0.1811323
0.06822499
1e-15
0.00298971
0.002226821
0.002233173
0.000163163
9.713434e-05
8.169012e-05
0.004882964
0.05509406
0.0006038633
0.01339039
5.872812e-05
6.02667e-05
0.1164343
1e-15
0.03016029
0.0004083039
0.2666144
1e-15
1e-15
1e-15
0.0003579171
0.2134698
2.748639e-15
1e-15
0.04277379
0.0005498016
0.01505995
0.2017142
0.02693858
1.568631e-08
0.2772119
0.03345273
0.001845297
1e-15
0.2817047
0.00160971
1e-15
0.03818432
0.04065924
1e-15
0.0005112441
1e-15
0.01156592
0.2018254
0.0004466657
8.714614e-05
0.2286544
0.05618179
0.01917136
0.002025132
0.008060836
0.0002754805
0.0367455
1e-15
0.0002276689
0.000796666
1e-15
1e-15
0.01570043
0.1793359
0.1606612
1e-15
1e-15
2.370503e-05
0.02612559
4.596672e-06
0.06350456
0.2239841
0.01063484
0.0002772912
0.09138808
0.03729962
0.002639112
1e-15
0.001061749
0.0003318409
0.04798351
0.2932991
0.09726389
0.3117075
0.005988066
0.001551036
1e-15
0.0001098718
0.03417816
1.294193e-06
0.0002701774
4.603436e-06
0.1444457
0.0004987749
0.0008662512
0.009969093
3.334569e-06
1e-15
0.138776
0.1770603
1e-15
2.54351e-15
0.1964396
0.09494191
1e-15
6.441395e-06
0.04559594
0.09278876
4.557453e-13
1e-15
5.532823e-06
0.1052744
0.002835021
0.002632635
5.970759e-05
0.06673437
0.001807259
1e-15
0.001779516
0.01926809
1e-15
0.01464749
1e-15
1.007271e-15
2.739889e-07
3.461374e-15
1e-15
1.480352e-09
1e-15
1.352991e-15
2.375682e-15
1e-15
1e-15
1.079795e-05
1e-15
1.285859e-06
1e-15
3.662133e-06
1e-15
1e-15
0.04530785
0.09595241
1e-15
5.017907e-13
1.132883e-05
0.2388133
0.1490615
0.2302498
1e-15
1e-15
1e-15
7.121523e-06
0.07002078
1e-15
1.945724e-08
3.901238e-06
6.108961e-05
0.000530189
0.006626267
1e-15
0.09135496
6.666595e-05
6.732435e-06
0.01672423
0.001311409
0.275914
0.2689622
0.001931932
0.1539368
0.06865689
1e-15
0.03832325
0.006272292
7.386809e-06
1e-15
0.0009122655
0.001634183
0.3287532
0.0195065
0.2315362
0.04117264
1e-15
0.2453806
1e-15
0.075778
0.1340725
6.790782e-06
8.588785e-06
0.0003660782
2.792275e-05
0.0005093916
1e-15
0.05052923
0.007019715
0.04380901
0.2496172
1e-15
0.01209277
0.0003223222
0.01282283
1e-15
0.01063073
1.75303e-05
1e-15
0.04479423
0.0103362
0.03038417
1e-15
0.1297924
0.2579601
0.1430726
0.0149094
0.211007
1.077913e-10
0.2374983
1e-15
0.1003019
0.3020037
1e-15
1e-15
3.899065e-06
1e-15
0.3389155
7.041845e-05
0.0004431551
1e-15
0.0009359636
0.0848392
1e-15
0.2496413
0.02719501
8.814885e-06
0.0356444
4.975784e-06
1e-15
7.314613e-05
0.009409827
0.04678629
1e-15
1e-15
0.04184677
1e-15
1e-15
0.02868274
0.2394634
0.03528914
0.2266524
1e-15
0.04310087
6.69761e-05
0.001786951
0.0001307373
1e-15
3.576256e-06
0.2362435
0.0003433668
3.632417e-06
0.2549722
1e-15
1e-15
1e-15
0.04144991
1e-15
0.2418855
1.804383e-05
0.2978259
1e-15
1e-15
8.780436e-05
0.1899521
0.01163343
0.07980642
0.04293368
1e-15
1e-15
0.04198881
0.03379024
0.01140541
1e-15
8.390611e-07
1e-15
0.1410056
1e-15
1e-15
1e-15
1e-15
0.0778439
0.05644798
1.796456e-05
0.2330173
3.535018e-06
1e-15
1e-15
0.1019764
1e-15
1e-15
0.1594814
0.0005204965
1e-15
4.421536e-05
0.04121772
1e-15
0.07958946
0.2218502
0.08469418
0.08016303
1e-15
0.03099959
1.356029e-05
0.1311828
1e-15
0.00528712
1e-15
0.1224763
1e-15
0.1234314
1e-15
0.140523
0.09093013
0.1319178
1e-15
1e-15
0.1134497
1e-15
0.3095566
0.1044592
0.04253099
1e-15
0.0400321
1e-15
1e-15
0.0003249021
1e-15
1e-15
0.2288005
0.373062
1e-15
0.00125882
0.0002339618
0.006238074
1.57162e-15
1e-15
0.08033447
0.2115813
1e-15
0.06360578
0.1132896
0.1755252
0.07551792
0.0003134241
0.2291658
0.04916536
0.05281377
0.03418051
3.534573e-06
1e-15
1e-15
0.001869413
0.04133085
0.05457856
0.001130996
1e-15
2.256325e-06
0.02778816
0.06605096
0.02116015
0.02240481
1e-15
1e-15
1e-15
1e-15
2.574031e-05
0.05101455
0.09883608
1e-15
0.09118134
1e-15
1e-15
0.1689889
1e-15
0.1264767
0.0294767
1.161753e-10
1e-15
1.770034e-06
0.227295
1.479271e-05
1e-15
0.181887
1.649363e-15
0.0001283189
3.259136e-05
0.0001208123
0.07732756
1e-15
0.1400837
0.2616678
0.0609603
0.08505237
0.1476789
1e-15
4.91918e-06
1e-15
5.182444e-06
0.05902441
1e-15
3.042647e-07
1e-15
0.09980776
1e-15
0.04839162
0.04893667
0.1333638
0.1318384
6.184756e-06
0.06202291
0.1223665
0.03964884
1e-15
2.590409e-15
1.188938e-15
1e-15
1e-15
1e-15
1e-15
1e-15
1e-15
1e-15
9.215483e-05
0.0001213128
0.0002418383
0.0003566529
0.0001112163
0.00014272
0.000295563
1e-15
1e-15
1e-15
1e-15
1e-15
1.023341e-15
1e-15
1e-15
1e-15
1e-15
1e-15
1e-15
1e-15
1e-15
0.05576507
0.05599064
0.05516392
0.05661007
0.06875091
0.06668803
0.0623209
0.0003301317
0.001195558
0.0003155948
0.001106235
0.0003697486
0.00102574
0.0003448131
1e-15
1e-15
4.900191e-14
8.282706e-09
1e-15
1e-15
1.009541e-15
0.06962716
0.06343833
0.06220458
0.07427113
0.09438372
0.09035672
0.08490212
0.00022197
0.0004783756
0.0001604852
0.0003668125
0.0002293908
0.0005417987
0.0001445145
1e-15
1e-15
1e-15
1e-15
1e-15
1e-15
1e-15
0.0001124221
0.0002115929
6.619678e-05
0.0002259395
0.0001420066
0.0002688458
7.919103e-05
0.249666
0.2545565
0.2551963
0.2507948
0.2447146
0.2494112
0.2491353
1e-15
1e-15
1e-15
1e-15
1e-15
1e-15
1e-15
0.001722967
0.005788794
0.00501126
0.001463899
0.001571692
0.004667313
0.00419559
0.05268458
0.08093739
0.04881575
0.08165742
0.05283729
0.09043499
0.04817279
0.03733463
0.04059222
0.04960804
0.07077235
0.05388962
0.05608138
0.06444917
0.03678629
0.03689604
0.0478553
0.06406813
0.05056979
0.05388625
0.06140878
1e-15
1e-15
1e-15
1e-15
1e-15
1e-15
1e-15
1e-15
1e-15
1e-15
1e-15
1e-15
1e-15
1e-15
0.05674649
0.06000088
0.04984927
0.06397497
0.07698944
0.08096947
0.06216275
0.05215963
0.07480904
0.07890888
0.04783045
0.04945637
0.07250547
0.0777336
1e-15
1e-15
1e-15
1e-15
1e-15
1e-15
1e-15
1e-15
1e-15
1e-15
1e-15
1e-15
1e-15
1e-15
2.377811e-10
1e-15
2.674837e-09
1.882445e-08
1e-15
1.13664e-15
3.687044e-11
0.04074926
0.03831084
0.05070014
0.06727436
0.06552397
0.05826205
0.07424477
1e-15
1e-15
1e-15
1e-15
1e-15
1e-15
1e-15
0.03471921
0.04218896
0.04886653
0.0590086
0.04582954
0.05938192
0.07228976
1e-15
1e-15
1e-15
1e-15
1e-15
1e-15
1e-15
0.04477163
0.05080905
0.05508921
0.07531799
0.0693421
0.06756786
0.07541712
0.01130433
0.01342701
0.008464407
0.01176654
0.01783348
0.0237351
0.01449399
0.07199327
0.08340355
0.07303984
0.1240486
0.09531586
0.1212656
0.1004584
0.07966161
0.09871189
0.07461334
0.1060015
0.08596711
0.1009988
0.08530098
0.05934105
0.05951876
0.06992634
0.07400435
0.0670431
0.06428678
0.07071211
0.02861038
0.03635594
0.02917903
0.02915311
0.03463182
0.04253597
0.0360034
0.01056346
0.01708989
0.02450552
0.01825525
0.01142493
0.01853628
0.02693971
1e-15
1e-15
1e-15
1e-15
1e-15
1e-15
1e-15
1e-15
1e-15
4.308621e-13
1e-15
1e-15
1.127706e-14
1e-15
0.001804981
0.003105822
0.004987273
0.001170499
0.001494162
0.003032241
0.00477779
0.01215484
0.01553612
0.01912037
0.01236636
0.01740399
0.01927574
0.02488566
2.506737e-07
1.813525e-06
3.626451e-06
3.393443e-06
8.638224e-08
6.633713e-07
1.693861e-06
6.089184e-05
0.0001189664
0.0001643952
0.0003129552
6.659169e-05
0.0001420619
0.0001862211
0.0001783974
3.742565e-05
5.283073e-05
0.0001881373
0.0001871545
4.009696e-05
5.116755e-05
1e-15
1e-15
1e-15
1e-15
1e-15
1e-15
1e-15
0.02775169
0.04602344
0.04532165
0.02494022
0.02375514
0.04238579
0.04089101
0.05781946
0.08994886
0.06799921
0.1153737
0.06227129
0.1024608
0.0785005
0.007363472
0.009935159
0.01342077
0.004086355
0.006931397
0.009368181
0.01270937
1e-15
1e-15
1e-15
1e-15
1e-15
1e-15
1e-15
0.05491523
0.05754836
0.06210939
0.056963
0.06641949
0.06196695
0.06244058
1e-15
1e-15
1e-15
1e-15
1e-15
1e-15
1e-15
0.04122434
0.04645332
0.05640263
0.07354355
0.04269836
0.04665729
0.06322995
0.01860242
0.01941613
0.01303786
0.0198165
0.0291438
0.0279943
0.01931128
3.214566e-07
1e-15
1e-15
1e-15
1e-15
1e-15
1e-15
0.002008301
0.0009969375
0.001688424
0.0008883539
0.002509494
0.00125837
0.001876863
0.0001589225
0.0002286212
0.0004615208
0.0004421952
0.0001850308
0.0002663853
0.0005447381
1e-15
1e-15
1e-15
1e-15
1e-15
1e-15
1e-15
0.002490129
0.001279696
0.00160657
0.004369996
0.003333414
0.001738335
0.002379249
1e-15
1e-15
1e-15
1e-15
1e-15
1e-15
1e-15
1e-15
1e-15
1e-15
1e-15
1e-15
1e-15
1e-15
4.09732e-06
3.994855e-06
4.096574e-06
1e-15
1e-15
1e-15
1e-15
1e-15
1e-15
1e-15
1e-15
1e-15
1e-15
1e-15
0.03330557
0.03211382
0.02109236
0.02317598
0.03560168
0.0342259
0.02290861
1e-15
2.108525e-15
1e-15
1e-15
1e-15
1.974158e-15
1e-15
1e-15
1e-15
1e-15
1e-15
1e-15
1e-15
1e-15
1e-15
1e-15
1e-15
1e-15
1e-15
1e-15
1e-15
0.1517509
0.1726715
0.156055
0.2310802
0.2402463
0.232968
0.234691
0.02000786
0.01871007
0.01215912
0.01951881
0.02733451
0.03061721
0.01959473
0.127878
0.07327796
0.07331363
0.1291929
0.1317503
0.08716267
0.08828586
1.244672e-15
1e-15
1e-15
1.617061e-15
1e-15
1.215429e-15
6.931233e-10
0.2496292
0.2548402
0.2555609
0.2568791
0.2497089
0.255878
0.2515544
1e-15
3.338657e-15
1e-15
1.116834e-15
1.03425e-15
4.23672e-15
3.542298e-15
1e-15
1e-15
1e-15
1e-15
1e-15
1e-15
1e-15
1.587255e-05
8.385293e-06
6.827415e-06
2.411182e-06
1.629192e-05
7.948273e-06
6.910571e-06
1e-15
1e-15
1e-15
1e-15
1e-15
1e-15
1e-15
0.00533772
0.009416259
0.006915304
0.004971622
0.008300426
0.01290027
0.007577239
0.009163986
0.01187042
0.01001565
0.009091049
0.0105818
0.01468972
0.01358027
0.03061122
0.04233486
0.03864531
0.04586926
0.04862818
0.05915105
0.06136095
1e-15
1e-15
1e-15
1e-15
1e-15
1e-15
1e-15
1e-15
1e-15
1e-15
1e-15
1e-15
1e-15
1e-15
0.0004238413
0.0002377617
0.0013618
0.0006897408
0.0003766371
0.0002187679
0.001238523
0.2505518
0.1640788
0.1329532
0.1456208
0.222765
0.1382072
0.1578938
1e-15
1e-15
1e-15
1e-15
1e-15
1e-15
1e-15
1e-15
1e-15
6.155769e-14
1e-15
1e-15
1e-15
5.644941e-14
0.0270827
0.03370748
0.0390484
0.03921603
0.03864036
0.04852329
0.04650333
1e-15
1e-15
1e-15
1e-15
1e-15
1e-15
1e-15
0.0006309557
0.0004982767
0.001041836
0.00197776
0.001023304
0.0007519769
0.001597417
1.69449e-06
3.339806e-06
1.400576e-05
1.295657e-05
2.449733e-06
4.574128e-06
2.027176e-05
0.01564092
0.01886718
0.01629093
0.01650133
0.01991087
0.02521109
0.02342456
0.006583872
0.01008177
0.01270244
0.007307114
0.008162297
0.01304334
0.01469034
0.01480476
0.01349982
0.009271175
0.01536188
0.02310204
0.02354779
0.01475402
0.007527354
0.007451688
0.01271789
0.004042138
0.007458069
0.00777885
0.01323437
0.004032751
0.009673355
0.006927363
0.007720162
0.005844182
0.01223124
0.01058939
0.004840769
0.005894812
0.009610237
0.00979404
0.006259752
0.007593176
0.01255042
1e-15
1e-15
1e-15
1e-15
1e-15
1e-15
1e-15
1e-15
1e-15
1e-15
1e-15
1e-15
1e-15
1e-15
1.196519e-05
9.425618e-06
2.303768e-06
3.606565e-06
1.625234e-05
1.185555e-05
2.818437e-06
0.2315188
0.231671
0.2323664
0.2331274
0.2288531
0.2317428
0.2304597
0.008818396
0.02263081
0.01714744
0.006286547
0.008310124
0.02257646
0.01745402
1e-15
1e-15
1e-15
1e-15
1e-15
1e-15
1e-15
0.004288222
0.00360703
0.001998106
0.003454575
0.007101057
0.005637352
0.002968416
0.0001016113
0.0003272192
0.0003519953
9.83417e-05
8.962242e-05
0.0002967948
0.0003213312
0.002107404
0.003939339
0.005211318
0.004594903
0.003366774
0.006196385
0.00817035
0.005956083
0.007697172
0.008777476
0.007068458
0.00803074
0.01239312
0.01290947
1e-15
1e-15
1e-15
1e-15
1e-15
1e-15
1e-15
0.002764818
0.005753448
0.005134831
0.005019073
0.004106471
0.008810319
0.00804355
0.0001000408
6.675214e-05
0.0001278647
0.0002518858
0.0001501075
9.926271e-05
0.0001866611
1e-15
1e-15
1e-15
1e-15
1e-15
1e-15
1e-15
1e-15
1e-15
1e-15
1e-15
1e-15
1e-15
1e-15
1e-15
1e-15
1e-15
1e-15
1e-15
1e-15
1e-15
1e-15
1e-15
1e-15
1e-15
1e-15
1e-15
1e-15
1.528327e-05
4.077335e-05
5.922386e-05
1.160383e-05
1.755534e-05
4.969459e-05
6.871837e-05
0.001374077
0.0005440514
0.001059401
0.001158719
0.002194192
0.0008860937
0.00172857
0.0001883305
6.75329e-05
0.0001418045
0.0001043279
0.0002439631
7.244305e-05
0.0001601508
0.0196069
0.02903546
0.02726305
0.03182575
0.02912617
0.04425364
0.04061347
0.0009939758
0.001589653
0.0007995529
0.00301431
0.001566612
0.002395425
0.001222463
0.008330405
0.01493244
0.01317459
0.01432812
0.01356834
0.02196779
0.02060051
1e-15
1e-15
1e-15
1e-15
1e-15
1e-15
1e-15
0.001235114
0.0008960183
0.001739279
0.003229414
0.001759672
0.001405326
0.002494574
0.003184385
0.001601893
0.001105859
0.003297633
0.004039892
0.002031229
0.001392473
0.003052698
0.002425175
0.00124619
0.002578572
0.004810963
0.003779193
0.001981431
3.02037e-05
0.0001074601
0.0002137092
5.402834e-05
2.927175e-05
9.871487e-05
0.0001895442
1e-15
1e-15
1e-15
1e-15
1e-15
1e-15
1e-15
0.0001031327
2.985416e-05
7.286471e-05
4.265724e-05
9.946e-05
2.403563e-05
6.056415e-05
1e-15
1e-15
1e-15
1e-15
1e-15
1e-15
1e-15
0.06918449
0.06486425
0.05556076
0.06076131
0.06210284
0.0589057
0.05979683
0.02040999
0.02967843
0.02879394
0.02524492
0.03236148
0.03590931
0.03975181
1e-15
1e-15
1e-15
1e-15
1e-15
1e-15
1e-15
0.04910963
0.07844394
0.0713221
0.04702437
0.0466466
0.07547771
0.0694071
0.01860412
0.02635236
0.02660612
0.02808694
0.02810708
0.03811257
0.03811409
1e-15
1e-15
1e-15
1e-15
1e-15
1e-15
1e-15
0.0002956666
0.0006334015
0.000812297
0.0005161702
0.0003522797
0.0007978539
0.001136651
1e-15
1e-15
1e-15
1e-15
1e-15
1e-15
1e-15
1e-15
1e-15
1e-15
1e-15
1e-15
1e-15
1e-15
1e-15
1e-15
1e-15
1.522125e-14
1e-15
1e-15
1.357971e-13
1e-15
1e-15
1e-15
1e-15
1e-15
1e-15
1e-15
0.01171853
0.006156044
0.01050081
0.01214068
0.02002843
0.009745075
0.01638923
0.002819746
0.003917208
0.006827434
0.007904475
0.004592928
0.006146586
0.01155373
0.02693855
0.03161474
0.03546458
0.03534357
0.0408648
0.05005123
0.05444982
1e-15
1e-15
1e-15
1e-15
1e-15
1e-15
1e-15
0.003439898
0.006701524
0.004131883
0.006214197
0.003952182
0.007507371
0.004961966
0.002110211
0.003492406
0.005087689
0.006177606
0.003151885
0.005206258
0.008054662
0.0008908798
0.002303483
0.004132882
0.001868868
0.000938768
0.002554246
0.004520587
1e-15
1e-15
4.451082e-07
3.378896e-09
1e-15
1e-15
1.138111e-06
0.2242393
0.2283367
0.2227757
0.2191807
0.2237318
0.226797
0.2236475
0.00175268
0.001744084
0.0008084847
0.0008043574
0.001694995
0.00074395
0.0007541057
0.1130548
0.1347985
0.1524975
0.1268683
0.1072502
0.1247789
0.1430639
0.1507012
0.1634847
0.1508749
0.163808
0.151374
0.1635971
0.1515873
0.1703215
0.1457338
0.1577049
0.1466188
0.1555513
0.1463356
0.1547598
0.005141012
0.008080457
0.006460552
0.006042365
0.006747453
0.01112384
0.009590023
5.329424e-05
6.98499e-05
0.0002686074
0.0002310034
4.779779e-05
6.166156e-05
0.0002440726
0.0001500327
0.0001162892
0.0002489827
0.0005070495
0.0001996208
0.0001448806
0.0003540071
0.01602553
0.01735442
0.01149592
0.01614213
0.02448567
0.02837047
0.01892526
0.2271138
0.2297009
0.2310437
0.2275921
0.226206
0.2279449
0.2285924
0.1265863
0.1313019
0.1439314
0.142471
0.1270116
0.1302426
0.1448181
0.02633765
0.02239894
0.01406251
0.01316819
0.02779555
0.02246774
0.01565062
1e-15
1e-15
1e-15
1e-15
1e-15
1e-15
1e-15
0.03655666
0.02944552
0.03608006
0.05020817
0.06078613
0.05021176
0.05986943
0.1795729
0.1930983
0.1819463
0.2596185
0.2532463
0.2523559
0.2453459
0.03122767
0.03697219
0.04625333
0.04139589
0.03201504
0.04063838
0.05112663
0.179279
0.1855223
0.1901375
0.1830657
0.1864332
0.1823114
0.1858657
0.1877175
0.1900789
0.1889506
0.1872384
0.187272
0.1885018
0.1874342
0.2567449
0.2747212
0.2694233
0.2637959
0.2604378
0.2559965
0.2558649
0.2805973
0.2968468
0.2809096
0.2501099
0.2565959
0.2504629
0.2538723
0.1202615
0.1448538
0.1635418
0.1532506
0.1224016
0.1454325
0.1637718
1e-15
1e-15
1e-15
1e-15
1e-15
1e-15
1e-15
0.1438114
0.1439879
0.1447679
0.1456074
0.1430393
0.1440752
0.145252
0.05550663
0.04382287
0.03956477
0.06489636
0.05971588
0.07829051
0.07739344
0.0019679
0.004136226
0.002650141
0.004229257
0.002451273
0.005133223
0.003093876
1e-15
1e-15
1e-15
1e-15
1e-15
1e-15
1e-15
0.04392172
0.03595148
0.03261251
0.05450525
0.05650161
0.06178375
0.06542974
1e-15
1e-15
1e-15
1e-15
1e-15
1e-15
1e-15
0.03626934
0.03115861
0.03689499
0.0471861
0.0568177
0.04536923
0.0523614
1e-15
1e-15
1e-15
1e-15
1e-15
1e-15
1e-15
0.04066814
0.03008042
0.02882355
0.05427897
0.05562359
0.06175935
0.06471519
1e-15
1e-15
1e-15
1e-15
1e-15
1e-15
1e-15
0.03720199
0.02813533
0.0281339
0.0633784
0.05847992
0.06981598
0.06895918
1.678652e-06
2.095243e-05
5.274243e-06
1.540468e-05
1.530476e-06
1.914928e-05
5.177266e-06
1e-15
1e-15
1e-15
1e-15
1e-15
1e-15
1e-15
0.1448283
0.1452608
0.145761
0.146214
0.1454173
0.1458945
0.146338
5.452661e-06
5.352047e-06
5.44887e-06
5.645683e-07
9.121788e-07
5.679393e-07
9.15734e-07
0.1493644
0.149968
0.1664771
0.16504
0.1502666
0.1508776
0.1684385
5.806491e-06
5.572731e-06
5.774801e-06
2.590032e-06
1.415757e-06
2.484054e-06
1.393864e-06
0.02305699
0.01301919
0.005900415
0.0853062
0.02519152
0.01491009
0.006329427
0.1836895
0.1878441
0.1847203
0.1885413
0.1912475
0.1897532
0.1923499
0.03164191
0.03137788
0.02489599
0.03992334
0.05312775
0.05690795
0.04462181
0.14217
0.1305144
0.1423858
0.1300737
0.1429913
0.1303148
0.1439253
0.1433296
0.1384692
0.119724
0.1239102
0.1421167
0.1368499
0.1181084
0.2864813
0.2961686
0.2957369
0.2441122
0.2411896
0.2441204
0.2394655
0.02605249
0.02705724
0.01224828
0.009711124
0.02438895
0.02514926
0.01135803
1.186109e-05
6.001087e-05
2.856072e-05
2.265683e-05
1.19648e-05
6.827258e-05
3.289686e-05
0.1343351
0.1170775
0.09309709
0.1140782
0.1358162
0.1181398
0.09477679
4.411534e-06
4.29685e-06
4.410753e-06
1e-15
1e-15
1e-15
1e-15
1e-15
1e-15
1e-15
1e-15
1e-15
1e-15
1e-15
1e-15
5.75587e-08
4.905216e-09
1.919617e-07
1e-15
2.743759e-07
1e-15
0.1975278
0.2003765
0.2000002
0.1930211
0.1983925
0.1932203
0.1988313
1e-15
1e-15
1e-15
1.174373e-11
1e-15
1e-15
1e-15
1e-15
1e-15
1e-15
1e-15
3.424082e-15
1e-15
1e-15
2.695973e-15
5.137649e-06
6.778231e-15
6.065245e-06
2.204072e-15
4.207788e-06
1.98904e-15
0.1493196
0.170389
0.1507137
0.1747258
0.1505483
0.1720601
0.1521019
1e-15
5.029363e-06
1e-15
5.720816e-09
1e-15
4.721919e-06
1e-15
0.04216888
0.02858329
0.02948735
0.07101437
0.07379894
0.06856694
0.06585578
0.1807392
0.1818716
0.1813893
0.1999871
0.1949715
0.2006304
0.1961182
0.07297255
0.1202509
0.03488679
0.08015356
0.1236638
0.0376998
0.08393708
1e-15
7.053196e-15
1e-15
1e-15
1e-15
1e-15
1e-15
0.004909067
0.003000233
0.004694
0.003479343
0.005721587
0.003696402
0.005963742
0.003662185
0.002607053
0.00422362
0.003073126
0.005043012
0.003314051
0.005416916
0.001022527
0.003075941
0.001258573
0.003292353
0.001440895
0.004815623
0.001827559
0.0006560814
0.00016129
0.0005706431
0.0001501473
0.0006010718
0.0001364516
0.0005006647
0.0004409703
0.0001287509
0.0005205202
0.0001075087
0.0003861967
0.0001353194
0.0004630391
0.0003258551
8.53531e-05
0.0004253931
9.493855e-05
0.0003564259
9.537258e-05
0.0003594442
0.003948451
0.006512091
0.007664098
0.007613979
0.006102973
0.01019728
0.01227598
0.0609457
0.06200008
0.05496862
0.07617096
0.09505107
0.09705178
0.07390189
0.0007293291
0.001661061
0.001987697
0.0005522994
0.0006890433
0.001421276
0.001733072
0.009772787
0.01883595
0.01470903
0.01684859
0.01506279
0.02364928
0.02122911
2.652378e-05
1.642064e-05
3.268555e-05
9.020432e-05
3.976244e-05
2.468916e-05
4.94683e-05
0.0002744999
6.541128e-05
0.0002756785
6.551237e-05
0.0002541131
8.016837e-05
0.0002917821
0.09370399
0.1264132
0.1020539
0.1468638
0.09930757
0.1296111
0.09426774
1e-15
1e-15
1e-15
1e-15
1e-15
1e-15
1e-15
0.04061056
0.03338018
0.04710369
0.04470045
0.05409052
0.04409754
0.05217027
0.0008305564
0.0006400102
0.0003008767
0.0006430809
0.001314254
0.0009980678
0.0004629273
0.2609765
0.282493
0.2771479
0.1865894
0.1912066
0.185015
0.1904742
1e-15
1e-15
1e-15
1e-15
1e-15
1e-15
1e-15
8.426245e-07
1e-15
1e-15
1e-15
9.378571e-07
1e-15
1e-15
1e-15
1e-15
1e-15
1e-15
1e-15
1e-15
1e-15
0.001671492
0.0006725575
0.002579974
0.000355478
0.001640109
0.0006443695
0.002458087
0.2065239
0.2001092
0.1932358
0.267107
0.2612779
0.2562081
0.2476066
6.346966e-12
1.670378e-15
1e-15
1.415979e-15
1e-15
1.910761e-15
1e-15
1e-15
1e-15
1e-15
1e-15
1e-15
1e-15
1e-15
0.04001671
0.0295158
0.03022083
0.07152343
0.06765644
0.05863865
0.05346622
0.0005278257
0.001724007
0.001515732
0.0004920028
0.0004842643
0.001391197
0.001258688
0.03557045
0.01209651
0.005055356
0.01635647
0.03721779
0.01288425
0.005426765
0.2056549
0.1781451
0.1818177
0.205562
0.2078507
0.1743891
0.1774958
0.02819422
0.04197705
0.04240373
0.02335653
0.02506634
0.03638935
0.03747468
1.231884e-06
3.68801e-11
1.079281e-06
6.605501e-07
3.515328e-06
6.020465e-07
3.214049e-06
0.2858188
0.2941446
0.3007591
0.1673391
0.1651113
0.1663966
0.1678484
0.04694659
0.03645617
0.04464351
0.04177201
0.05000281
0.04210187
0.04954039
0.0007211592
0.00054623
0.0001927941
0.002025692
0.0007562139
0.0005842944
0.000203487
1e-15
1e-15
1e-15
1e-15
1e-15
1e-15
1e-15
0.2817808
0.2877154
0.2927183
0.2330413
0.2378671
0.2317782
0.2384301
0.000463871
0.001216473
0.0003820609
0.001835018
0.0005173
0.00132336
0.0004263507
1e-15
1e-15
1e-15
1e-15
1e-15
1e-15
1e-15
0.03761197
0.02747348
0.02688492
0.0560891
0.05951702
0.04879604
0.04984871
0.01836308
0.04159095
0.0248031
0.04186608
0.01962287
0.04564547
0.02675241
1e-15
1e-15
1e-15
1e-15
1e-15
1e-15
1e-15
0.0004085351
0.000192032
0.0002381044
0.0007964594
0.0006192149
0.0002710513
0.0003545181
1e-15
1e-15
1e-15
1e-15
1e-15
1e-15
1e-15
0.01278046
0.005741327
0.00480436
0.01083357
0.01062324
0.00496569
0.004145888
0.2092257
0.2168274
0.2082407
0.1978505
0.2097956
0.2144252
0.2037451
0.001101226
0.0004480327
0.001128369
0.0006033355
0.001440198
0.0006073383
0.001380739
5.175251e-05
0.0001062884
3.899431e-05
0.0001151743
7.358612e-05
0.0001503642
5.196764e-05
0.2262516
0.2129611
0.1940879
0.1874707
0.1879033
0.1936861
0.1890267
0.05487216
0.0592355
0.05540704
0.05531625
0.06223535
0.05545627
0.0602729
0.02184326
0.01333575
0.01620967
0.03372965
0.03620703
0.02261968
0.02777264
0.002203953
0.0005944213
0.0006116143
0.002523122
0.00275535
0.0007268371
0.0007653284
0.01177052
0.0120522
0.0153369
0.01035257
0.0146508
0.01600061
0.01994735
0.0002194868
0.0001607819
0.0001363706
0.0004291981
0.0003372762
0.000251573
0.000211423
0.03597216
0.0264533
0.02655379
0.05302996
0.05286442
0.05056662
0.05649462
1e-15
1e-15
1e-15
1e-15
1e-15
1e-15
1e-15
4.205419e-05
7.029472e-05
0.0003254709
0.0002139053
3.79916e-05
6.265885e-05
0.0002968557
0.001858708
0.00398402
0.002330843
0.0006752037
0.001593493
0.003543469
0.002086746
1e-15
1e-15
1e-15
1e-15
1e-15
1e-15
1e-15
1e-15
1e-15
1e-15
1e-15
1e-15
1e-15
1e-15
0.02679774
0.0220524
0.02103511
0.01987271
0.03445521
0.02733923
0.02682017
0.1911229
0.1964041
0.1789631
0.1709942
0.1887097
0.1983699
0.1707483
0.125988
3.036512e-10
3.981384e-12
0.1274316
0.1447049
0.1557403
0.1787883
1e-15
1e-15
1e-15
1e-15
1e-15
1e-15
1e-15
1e-15
1e-15
1e-15
1e-15
1e-15
1e-15
1e-15
4.290679e-05
8.512096e-05
0.0001240397
2.57666e-05
4.482711e-05
9.429407e-05
0.0001352475
0.03135513
0.02430369
0.01996632
0.03438824
0.03614251
0.02974784
0.02714397
4.750255e-06
4.596346e-06
4.749565e-06
1e-15
1e-15
1e-15
1e-15
0.05577235
0.04921841
0.05661191
0.06545683
0.05317619
0.04879282
0.06263917
0.2070465
0.2284519
0.2154175
0.2175036
0.1993817
0.2238493
0.2098409
0.005051468
0.01056401
0.005055938
0.009822548
0.004561003
0.0100631
0.004484978
6.009591e-05
6.218134e-05
0.0002512747
0.0002523144
6.055563e-05
6.045213e-05
0.0002489075
0.07315476
0.05400123
0.06550997
0.09214715
0.07480446
0.05519478
0.0650908
0.0375896
0.02796135
0.02530351
0.06101899
0.05563211
0.0509584
0.05832574
0.0006885019
7.062734e-05
0.0004576
0.003261335
0.0007987357
8.791445e-05
0.0005482513
1e-15
1e-15
1e-15
1e-15
1e-15
1e-15
1e-15
0.00355898
0.004702208
0.001432309
0.001005379
0.003340811
0.004387827
0.001357373
4.43048e-05
0.0001565521
0.0008824287
0.0003613436
4.782583e-05
0.0001610099
0.0009065182
0.04405328
0.05234707
0.05441063
0.06574219
0.06648021
0.06947447
0.06874694
0.2977601
0.2858296
0.2917399
0.1830314
0.1784238
0.1791866
0.1728905
0.07466534
0.07243212
0.088366
0.1278517
0.09186671
0.09124791
0.1204797
0.3239609
0.3083023
0.3056298
0.1728569
0.1666462
0.1692704
0.1637095
0.007643722
0.009250594
0.01156089
0.009425671
0.01211704
0.0148699
0.01861974
0.002377215
0.001425824
0.0008629497
0.002346936
0.003433819
0.001875723
0.001187837
1e-15
1e-15
1e-15
1e-15
1e-15
1e-15
1e-15
0.0003419757
0.0002086891
7.649114e-05
8.57838e-05
0.0002929322
0.0001667544
5.154196e-05
0.01745286
0.01126081
0.003825647
0.03857006
0.02022014
0.013763
0.00481935
1e-15
1e-15
1e-15
1.069233e-06
1e-15
1e-15
1e-15
7.133355e-05
0.0001760319
2.913984e-05
0.0003047626
7.649342e-05
0.0001978551
3.215379e-05
1.11335e-05
1e-15
3.322314e-07
3.963212e-06
1.000078e-05
1e-15
2.165466e-07
0.1220605
0.08284755
0.05897998
0.1474983
0.1297079
0.08514714
0.06224931
1.374832e-14
0.03470316
2.061792e-13
0.1108331
0.1119988
0.1101656
0.1085236
0.0005044687
0.0005120003
0.0002471441
0.001250648
0.0008062414
0.000683341
0.0003735964
0.01687338
0.0103204
0.01814122
0.01186682
0.01963676
0.01157261
0.0192671
4.927947e-05
2.981564e-06
1e-15
5.324425e-06
5.931052e-05
3.695431e-06
1e-15
0.01350813
0.01201463
0.03914103
0.1130665
0.116984
0.1094536
0.1146249
0.1335464
0.1425275
0.1404525
0.137111
0.1319381
0.1420259
0.1398929
0.1696718
0.1762694
0.1691327
0.1796328
0.1828513
0.1763192
0.1823878
1e-15
1e-15
1e-15
1e-15
1e-15
1e-15
1e-15
4.06635e-15
3.923471e-15
2.419507e-15
0.1120964
0.111169
0.105491
0.1055584
0.2020669
0.1834784
0.1939039
0.2202111
0.2052974
0.2229565
0.2202278
0.1135037
0.08143517
0.09807784
0.0892628
0.1050115
0.07447852
0.08929014
1e-15
1e-15
1e-15
1e-15
1e-15
1e-15
1e-15
8.589773e-06
6.360062e-06
8.27111e-06
5.603794e-06
1.32101e-05
5.560388e-06
1.433715e-05
0.04052239
0.02791544
0.02663468
0.0399451
0.03673097
0.0236603
0.02491274
1e-15
0.06944241
1.081824e-15
0.1704629
0.1258399
0.1587549
0.1238355
1e-15
1e-15
4.34702e-14
1.501973e-15
1e-15
1e-15
1e-15
1e-15
1e-15
1e-15
1e-15
1e-15
1e-15
1e-15
3.164107e-06
2.660934e-05
1.677571e-05
7.621874e-06
4.408043e-06
3.539399e-05
2.277729e-05
0.1067072
0.07919422
0.08938387
0.139577
0.1448021
0.09263022
0.098446
0.0002734548
0.001056701
0.0002674962
0.003525268
0.0003476017
0.001138075
0.0003174396
0.005425887
0.002432218
0.004782203
0.005350806
0.002742102
0.005752275
0.002917474
0.001183196
0.0009291929
0.01393636
0.1027751
0.1069884
0.1009615
0.1010149
0.08129874
0.05394418
0.05977015
0.06113237
0.0742324
0.04929912
0.0562633
0.0006477979
0.0006473267
0.001863537
0.001588944
0.0006001169
0.0005591168
0.001607351
1e-15
1e-15
1e-15
1e-15
1e-15
1e-15
1e-15
0.001781663
0.004359295
0.004403004
0.001692244
0.001751627
0.004372002
0.003986864
0.0276762
0.02945458
0.01674601
0.02310506
0.03929426
0.03362205
0.01897474
1e-15
1e-15
1e-15
0.06539017
0.05911459
0.03154779
0.03114867
0.01080865
0.004277295
0.004958584
0.07117565
0.07011962
0.04959914
0.05539394
1e-15
1e-15
1e-15
0.06920105
0.06483285
0.05054175
0.04297308
1.333768e-15
1e-15
1e-15
0.07399495
0.07496716
0.06097589
0.05927467
0.01046053
1e-15
1.08049e-05
0.0658393
0.07096061
0.03684034
0.04340853
1.639765e-14
1e-15
1e-15
0.06768218
0.06388902
0.04488246
0.0436127
1e-15
1e-15
1e-15
0.07116362
0.07457941
0.05213332
0.0579014
1e-15
2.936481e-15
1e-15
0.05579083
0.05710226
0.031689
0.03290501
1e-15
1e-15
1e-15
0.0767623
0.08391956
0.06940767
0.08154689
1.02774e-15
2.252616e-15
1.734183e-15
0.1032586
0.1017154
0.1137801
0.107404
1.738724e-15
1.055446e-15
1.457353e-15
0.09724641
0.0914883
0.09897586
0.09088475
1e-15
1e-15
1e-15
1e-15
1e-15