/*--------------------------------*- C++ -*----------------------------------*\
| =========                 |                                                 |
| \\      /  F ield         | OpenFOAM: The Open Source CFD Toolbox           |
|  \\    /   O peration     | Version:  1912                                  |
|   \\  /    A nd           | Website:  www.openfoam.com                      |
|    \\/     M anipulation  |                                                 |
\*---------------------------------------------------------------------------*/
FoamFile
{
    version     2.0;
    format      ascii;
    class       volScalarField;
    location    "40000/fluid";
    object      nut.gas;
}
// * * * * * * * * * * * * * * * * * * * * * * * * * * * * * * * * * * * * * //

dimensions      [0 2 -1 0 0 0 0];


internalField   nonuniform List<scalar> 
4960
(
4.651828e-26
0.0001122932
3.638253e-26
2.043568e-24
0.009767832
0.0003660636
1.394879e-25
0.001259459
0.0001231996
3.471308e-27
5.703752e-05
0.006204548
7.087965e-25
0.0003038513
0.002130691
0.01089007
0.006140511
8.672262e-26
1.078427e-26
0.0007969589
0.0008314349
4.337444e-26
2.736226e-27
6.441337e-12
0.006018367
7.467823e-27
0.0009478591
3.239239e-24
0.002065343
0.001410499
0.002030215
0.003209943
0.0009984683
0.0007944515
0.0005080319
3.083511e-27
4.031987e-22
0.0001468818
0.0007985439
8.185685e-07
9.4553e-05
4.86859e-05
1.754047e-25
0.0004591107
0.002771993
0.0005892113
4.339937e-27
0.001182271
6.325617e-27
0.002269432
0.004016681
4.121948e-21
0.0002635088
0.0001503061
1.556117e-26
0.0008209817
1.087633e-26
1.320235e-26
3.506579e-08
3.821694e-26
0.001034866
1.49817e-23
4.079729e-27
3.43133e-27
0.0045819
0.00315679
0.002899243
1.225549e-23
0.006541048
5.654184e-24
8.106549e-27
1.981907e-07
3.280426e-26
0.0003745843
0.002259828
0.001116317
1.736652e-23
5.11256e-27
8.624436e-05
0.00329221
1.039827e-25
6.213077e-27
0.006248935
5.176913e-27
0.00025015
1.357042e-06
0.002863347
0.0005254341
0.002313421
0.0004830819
0.0004916142
0.0006215084
9.858953e-27
3.010735e-27
3.21751e-07
0.00595236
0.0002503268
4.019714e-27
0.0003354784
1.147126e-05
0.0007886831
0.001429233
5.263083e-24
0.0007880125
3.850088e-05
3.552398e-27
6.967901e-26
1.309535e-24
1.531405e-25
2.119016e-06
0.0001805972
2.191793e-05
0.003431897
0.0004685909
0.000623996
8.356932e-27
0.0003913306
0.0009052331
0.0003653389
5.011968e-06
2.246516e-26
1.194531e-05
9.07646e-24
0.001408771
0.003905269
1.199948e-26
0.007557462
0.004626988
2.084234e-23
0.0001028594
4.164921e-23
3.791767e-27
3.558597e-27
2.76391e-27
0.001575991
0.0009814204
0.001765714
2.760643e-27
0.001176843
0.0008096172
0.000404618
3.439719e-15
0.005843301
0.001202215
0.002779763
0.004814341
0.003154388
0.00101741
9.585632e-05
7.927092e-05
0.00232665
0.006309442
0.004279709
0.001288081
9.588473e-27
0.006265
0.005047865
0.005606308
0.005096896
0.00540169
0.00558859
0.005519117
0.004392096
7.876743e-27
0.00441531
0.009876149
0.001006619
5.192905e-27
0.00765628
1.10825e-25
0.006510435
5.081848e-27
0.005839612
1.009575e-26
0.004264918
1.090616e-06
6.68046e-27
0.004483218
6.494812e-08
0.004794329
7.116881e-08
0.002902586
0.005379468
0.004897683
0.003672457
0.003841145
0.006135123
0.001600845
7.780091e-06
0.003285006
4.089234e-08
3.080738e-25
3.268161e-25
0.005455479
1.70295e-25
6.38097e-26
1.871494e-06
0.004903789
9.844573e-08
0.004419347
0.005452684
0.002355809
6.447982e-25
0.0003583666
0.000535877
0.0005210901
2.172584e-05
8.866263e-06
6.01789e-06
0.001110235
0.00109735
5.180679e-05
0.0005755528
1.241668e-05
3.561558e-06
0.001491325
8.936653e-27
0.001075593
9.346361e-05
0.004958974
3.454938e-25
2.877804e-27
1.574706e-26
4.870357e-05
0.00533064
7.428904e-24
3.371514e-27
0.0004337907
5.267157e-05
0.001381173
0.005284132
0.003732512
3.845268e-12
0.00470932
0.007933596
0.000545372
1.263131e-24
0.005993881
0.0002954903
3.927615e-27
0.005088757
0.001598185
1.733838e-26
0.0001210766
3.950436e-27
0.0003643783
0.005170769
0.0001755642
1.937293e-05
0.004915899
0.01021823
0.004383244
0.0006189788
0.002429788
6.727015e-05
0.004813682
4.170038e-25
2.766117e-05
9.28595e-05
1.214041e-26
3.54377e-27
0.003672401
0.0041995
0.002120898
4.003491e-27
1.033301e-25
7.930547e-06
0.005833999
4.71577e-08
0.001204073
0.006128797
0.0002618708
2.524294e-05
0.002866827
0.004887729
0.000368994
5.238908e-26
0.0001126121
4.813896e-05
0.001066743
0.005086224
0.001750972
0.004515977
0.001397938
0.0004920145
1.775911e-26
1.516082e-05
0.005762561
1.763039e-08
6.512173e-05
1.472419e-07
0.001798938
4.879377e-08
0.0002572757
0.0006793978
5.521807e-08
3.166039e-31
0.004233579
0.004563365
2.315439e-26
1.815267e-30
0.004690744
0.002073576
6.755106e-27
9.535428e-08
0.0005445664
0.001973309
5.097049e-21
2.748115e-27
9.883195e-07
0.001921727
0.0006546515
0.0002859515
9.755774e-10
0.001343519
0.0002162183
3.237817e-26
0.0002905519
0.0007429608
2.933774e-30
0.0001462736
2.716831e-30
1.416964e-30
4.371385e-14
5.293715e-29
2.056507e-30
4.652619e-18
9.444021e-31
9.078988e-31
9.557557e-30
3.935658e-27
2.562601e-26
1.842809e-06
4.200583e-27
9.807152e-08
3.326135e-26
1.070645e-07
2.453853e-26
2.788475e-26
0.0007548389
0.003406922
4.302411e-31
5.525971e-26
2.842564e-07
0.006364341
0.003078435
0.006249209
1.214689e-25
1.078288e-25
2.346069e-25
7.900424e-07
0.0009336174
4.654811e-24
1.155348e-10
3.316907e-08
6.352193e-06
9.784922e-05
0.001136237
5.454877e-27
0.001400333
1.995268e-05
1.993795e-07
0.004718973
0.0004164364
0.006142683
0.003257157
0.001714625
0.002508792
0.01112669
5.942156e-27
0.001050299
0.0002468885
2.107995e-07
6.298278e-27
0.0003385503
0.001295521
0.005943111
0.002730361
0.006370122
0.003005437
4.635266e-26
0.006597527
1.736114e-24
0.00141391
0.002409211
1.593547e-07
2.532038e-07
0.0001030799
2.133662e-06
0.0001175108
1.67957e-25
0.001383633
4.127149e-05
0.0008267188
0.004847268
1.044545e-25
0.0006402693
3.377766e-05
0.001028696
2.742309e-27
0.0008750129
9.645689e-07
2.438655e-26
0.001275703
0.0003629272
0.006161618
2.741245e-27
0.003989612
0.004774391
0.004305069
0.0007665815
0.004810373
5.223835e-16
0.006434123
2.482923e-27
0.003124212
0.005090989
6.895128e-27
2.44232e-25
3.286691e-08
1.219378e-26
0.004393795
1.563017e-05
0.0001469317
4.785897e-25
0.0002889062
0.004803258
1.000134e-26
0.002525461
0.001165786
3.386404e-07
0.0006403732
5.568448e-08
3.628412e-26
9.809167e-06
0.001305576
0.001021452
7.011884e-25
1.313859e-26
0.001328065
3.202166e-27
8.148454e-26
0.004258258
0.005905053
0.001361592
0.00618522
1.492701e-26
0.007384698
2.062646e-05
0.0005295816
2.438423e-05
3.952975e-27
5.943027e-07
0.006421987
3.757921e-05
2.829419e-08
0.005512679
2.589763e-27
3.354358e-27
5.008106e-27
0.007964967
3.871422e-27
0.006009124
3.63978e-06
0.005080073
5.644018e-25
4.771734e-26
1.463629e-05
0.005529343
0.0006095365
0.001712088
0.0007084154
9.169548e-25
1.202067e-26
0.008423059
0.0009549
0.0004196572
6.305898e-25
5.905173e-08
4.27426e-27
0.002001596
2.311857e-25
2.040623e-26
8.533144e-25
3.076292e-26
0.01094093
0.0009071913
3.405057e-06
0.006267307
2.657795e-08
2.378542e-27
5.338729e-27
0.001680768
7.204108e-27
6.910069e-26
0.003224728
6.360484e-07
8.787079e-27
9.901971e-06
0.0007772788
1.066984e-26
0.001558555
0.005901161
0.00160693
0.001612055
9.952751e-27
0.00818422
4.220326e-07
0.002244268
5.176225e-27
0.001252323
6.418164e-27
0.002148456
2.879271e-26
0.01949579
5.166289e-25
0.004187388
0.001732632
0.001932111
1.895995e-26
1.733898e-26
0.001878756
5.931502e-27
0.005139079
0.001867857
0.00650456
5.727205e-27
0.007086576
3.853712e-26
3.829281e-26
8.358585e-05
5.766925e-26
7.59485e-27
0.005959828
0.004770358
1.601597e-26
0.0009449788
8.466637e-05
0.001901679
5.274527e-27
2.704788e-26
0.001079736
0.005741085
1.909816e-26
0.0009885064
0.009818102
0.004922164
0.01277158
7.970093e-05
0.00529104
0.006526802
0.007287817
0.00540422
2.635076e-08
3.043979e-27
4.572575e-25
0.000173835
0.00747012
0.01156122
0.0008486409
2.478342e-27
1.162072e-08
0.006639507
0.001545673
0.002555772
0.0005446611
4.866707e-27
2.288362e-25
1.636267e-25
4.792448e-25
5.367034e-06
0.001138383
0.003659894
1.06794e-26
0.001836165
1.100139e-24
7.082113e-26
0.003470772
3.116808e-26
0.004229059
0.0007962226
1.917631e-16
3.704038e-26
1.768878e-07
0.0056362
4.92514e-07
2.756172e-27
0.004239474
5.751762e-27
2.334549e-05
6.150048e-06
2.805274e-05
0.01082062
8.570293e-27
0.02315874
0.00624253
0.01065437
0.003626386
0.004439269
6.265779e-27
5.063501e-08
3.123893e-25
6.619325e-07
0.01125808
2.831689e-27
4.318922e-09
2.07696e-25
0.003985998
1.068324e-24
0.001470925
0.001070521
0.004253344
0.004388911
9.956077e-07
0.01030029
0.004091821
0.0005768227
2.621043e-26
1.503455e-26
3.127378e-27
5.717062e-26
4.660047e-26
5.736874e-26
4.580888e-26
5.738785e-26
4.585967e-26
5.747319e-26
3.087673e-05
4.441238e-05
8.504928e-05
0.0001124439
3.344203e-05
4.506956e-05
9.025186e-05
3.233538e-26
2.303725e-26
5.163973e-26
3.727989e-26
3.265914e-26
2.421847e-26
5.360375e-26
2.569157e-24
2.045371e-24
2.565237e-24
2.477401e-24
1.987556e-24
2.481599e-24
1.995601e-24
0.001705025
0.001617646
0.003042814
0.008674232
0.0009590624
0.001293106
0.0007599784
8.630809e-05
0.0002530626
7.72238e-05
0.0003283165
9.870975e-05
0.0003273177
8.857315e-05
1.692133e-25
4.123198e-26
7.668422e-23
1.082585e-11
1.773704e-25
4.510531e-26
3.794568e-26
0.001368374
0.001334828
0.0009907666
0.006531772
0.001855276
0.006169222
0.001698318
6.481407e-05
0.0001446214
5.264881e-05
8.299899e-05
4.954555e-05
0.0001262582
2.844645e-05
4.427004e-27
3.362841e-27
4.411111e-27
3.470909e-27
4.426736e-27
3.362603e-27
4.410693e-27
3.879436e-05
7.056841e-05
2.036557e-05
7.2701e-05
4.995109e-05
9.488724e-05
2.545916e-05
0.006256976
0.006157891
0.006349351
0.006047258
0.006159858
0.006045435
0.006219468
7.102821e-25
7.614991e-25
8.011904e-25
6.679275e-25
7.607563e-25
8.029108e-25
6.682243e-25
0.0003284365
0.0002173983
0.0007024847
0.0002768887
0.0003220684
0.0003503958
0.0007693284
0.002081299
0.002279994
0.002120228
0.002507203
0.003923058
0.002591826
0.002076872
0.008398606
0.001374772
0.01028509
0.00136736
0.001220244
0.001135451
0.001821967
0.008076024
0.007091772
0.007460596
0.0115238
0.009846823
0.01056206
0.01101868
7.157661e-26
7.663181e-26
9.175839e-26
8.67765e-26
7.163066e-26
7.667578e-26
9.172191e-26
1.200078e-26
1.293896e-26
1.005131e-26
1.079668e-26
1.201772e-26
1.295188e-26
1.008121e-26
0.001216154
0.001180042
0.001007816
0.001035965
0.001618271
0.001314212
0.001310993
0.0007486643
0.00172475
0.001401212
0.0007655649
0.000998737
0.00175556
0.001373675
4.723897e-26
4.906217e-26
5.30484e-26
4.327911e-26
4.711461e-26
4.890067e-26
5.290352e-26
3.090313e-27
2.731606e-27
3.09968e-27
2.736224e-27
3.090312e-27
2.731606e-27
3.099678e-27
8.565667e-15
1.287754e-25
3.196719e-13
1.607092e-11
1.43909e-25
1.654398e-25
6.368398e-17
0.008279017
0.004125172
0.009611145
0.009048583
0.001557903
0.009309117
0.001042569
6.560424e-27
7.196368e-27
6.358928e-27
7.323522e-27
6.595503e-27
7.210517e-27
6.37953e-27
0.00754526
0.003316013
0.009524241
0.001295274
0.001969142
0.01137748
0.001456749
4.113062e-24
3.234241e-24
4.117639e-24
3.103859e-24
3.89557e-24
3.092584e-24
3.841046e-24
0.009245215
0.01029904
0.01052811
0.001547038
0.000972137
0.001518861
0.00106708
0.001693433
0.002482642
0.00168403
0.0005743469
0.0009008023
0.0007511127
0.001178571
0.001205667
0.002296086
0.001034852
0.002596849
0.001894613
0.002506279
0.00288873
0.003233101
0.003585671
0.002819832
0.002927437
0.002819442
0.003600308
0.002620979
0.000941332
0.001393058
0.001529689
0.001502531
0.001502177
0.001779671
0.001416087
0.0008013398
0.0009710527
0.001031381
0.0008164905
0.001143577
0.001296375
0.001137569
0.001270715
0.00380132
0.0008142039
0.0008511405
0.002549298
0.003916585
0.001705859
3.085191e-27
2.751538e-27
2.7463e-27
3.083819e-27
3.085306e-27
2.751784e-27
2.74667e-27
2.590269e-24
8.202721e-25
9.859403e-20
4.009538e-24
2.493818e-24
1.044845e-22
5.238245e-25
0.0001248053
0.000461831
0.0005668873
0.000119963
0.0002013066
0.0003944386
0.0002606514
0.0006326722
0.003240363
0.002429835
0.003281547
0.0009510527
0.004551348
0.005780672
2.853129e-09
5.829743e-08
2.450643e-07
1.39931e-07
3.926968e-10
9.078551e-09
6.118448e-08
2.403613e-05
4.488216e-05
6.663436e-05
0.0001061589
2.285731e-05
4.959182e-05
6.424159e-05
5.139791e-05
1.015385e-05
1.468915e-05
5.529794e-05
5.148569e-05
1.100598e-05
1.332628e-05
1.513614e-25
1.477653e-25
1.77613e-25
1.755188e-25
1.512151e-25
1.47854e-25
1.773104e-25
0.001694732
0.0008498727
0.0007046234
0.0003975145
0.003325808
0.0006201995
0.000706134
0.002693362
0.002531296
0.001897844
0.002701106
0.01518415
0.002438736
0.002111596
0.0001973489
0.001428219
0.001926381
0.0002527654
0.0002047032
0.00153196
0.002076483
4.951234e-27
4.842542e-27
4.390549e-27
4.331451e-27
4.950538e-27
4.832829e-27
4.390545e-27
0.01108696
0.001409857
0.001325343
0.0009624113
0.001379737
0.001081204
0.001505083
6.04103e-27
5.587654e-27
5.418288e-27
6.334143e-27
6.03893e-27
5.599063e-27
5.410959e-27
0.002388475
0.002006811
0.002014604
0.002392891
0.002606246
0.001947523
0.002180534
0.004589738
0.004819446
0.003431008
0.004737243
0.002033619
0.006536534
0.004825396
2.279497e-08
1.002406e-25
8.176825e-26
2.600055e-25
2.060934e-25
1.011891e-25
7.567564e-26
0.0006056999
0.0003047665
0.0005213389
0.0002214649
0.0006126652
0.0003176002
0.0004784429
6.277028e-05
9.379839e-05
0.0001762782
0.0001466965
6.177474e-05
8.740197e-05
0.000157437
1.367812e-26
1.476994e-26
1.696258e-26
1.557526e-26
1.369511e-26
1.478133e-26
1.696162e-26
0.0007137366
0.0003617644
0.0004037108
0.001089349
0.0007989662
0.0004313865
0.0003082933
1.394422e-26
1.227282e-26
1.24145e-26
1.086256e-26
1.392515e-26
1.226559e-26
1.238766e-26
2.389686e-26
1.720013e-26
1.195189e-26
1.321641e-26
2.395254e-26
1.722976e-26
1.19638e-26
3.703611e-08
3.505875e-08
3.701458e-08
2.466057e-27
2.459341e-27
2.467414e-27
2.460153e-27
1.728285e-26
1.531078e-26
3.07668e-26
3.824923e-26
1.729833e-26
1.534261e-26
3.086541e-26
0.002654479
0.001466021
0.004314879
0.001077264
0.002872964
0.001528871
0.003390295
1.06309e-23
1.583182e-23
6.168911e-24
1.440368e-23
9.837071e-24
1.292014e-23
6.026948e-24
4.162792e-27
3.568777e-27
3.616401e-27
4.079729e-27
4.162793e-27
3.568777e-27
3.616401e-27
4.218097e-27
3.43133e-27
4.218097e-27
4.305204e-27
3.625065e-27
4.305204e-27
3.625065e-27
0.004154386
0.004502823
0.004085631
0.005357806
0.005534512
0.005081145
0.005137599
0.0007161284
0.004659416
0.003183637
0.0007811032
0.001523083
0.0007722012
0.0009548478
0.003111549
0.002882419
0.01780642
0.003006589
0.003124744
0.002214418
0.002779708
1.093596e-24
1.601632e-25
2.047362e-25
1.758941e-24
5.271639e-25
1.841224e-25
8.045196e-14
0.00660049
0.006616574
0.006524465
0.006339394
0.006543368
0.006501272
0.006393713
7.5366e-24
3.119596e-23
2.567928e-24
5.941919e-24
6.881685e-24
4.361293e-23
2.680046e-23
7.182434e-27
6.775754e-27
7.528587e-27
8.111104e-27
7.185937e-27
6.787714e-27
7.538673e-27
3.187508e-06
1.361074e-06
1.01854e-06
1.641529e-07
2.433266e-06
9.355745e-07
7.953168e-07
4.565039e-26
2.158691e-26
3.046941e-26
3.266507e-26
4.56169e-26
2.156956e-26
3.046415e-26
0.001158439
0.0008713475
0.0003814135
0.000469909
0.0004716282
0.0005485822
0.001798898
0.00158879
0.003516667
0.002826054
0.002402811
0.002785845
0.003688383
0.003444191
0.00173937
0.0009433363
0.001833275
0.009542624
0.0014979
0.001824909
0.001401898
2.575925e-23
1.718538e-23
2.52578e-23
2.015157e-23
1.450177e-23
1.953338e-23
1.436771e-23
5.14746e-27
4.48502e-27
4.526152e-27
5.134702e-27
5.154213e-27
4.505679e-27
4.526543e-27
5.278995e-05
2.566573e-05
0.0001768465
9.357478e-05
5.513119e-05
2.919354e-05
0.0001908813
0.003893646
0.003128497
0.002581471
0.002478009
0.003463921
0.002790263
0.00289406
1.289435e-25
1.08857e-25
1.25023e-25
1.040438e-25
1.2883e-25
1.08784e-25
1.250952e-25
9.241355e-27
7.97023e-27
2.00062e-23
6.864084e-27
9.026697e-27
7.744564e-27
1.876661e-23
0.005393074
0.006271876
0.001250594
0.007908237
0.007725521
0.007463125
0.008690327
6.382156e-27
5.176981e-27
6.376772e-27
6.322583e-27
5.236954e-27
6.322608e-27
5.236894e-27
0.0001570084
0.0001274648
0.0002707677
0.0003477928
0.0001621133
0.0001611419
0.0002245094
1.524677e-07
3.934567e-07
2.324303e-06
2.160506e-06
2.493836e-07
5.574107e-07
3.514701e-06
0.0005973594
0.004350649
0.003568212
0.003699489
0.0006920319
0.005478047
0.004474058
0.0009084861
0.001481777
0.0005658882
0.001156457
0.002193426
0.000818512
0.00137721
0.003078925
0.002674193
0.001924513
0.003391393
0.004966401
0.001139117
0.003308969
0.0005392101
0.001688493
0.0006267702
0.0007597077
0.0004366582
0.001741991
0.0006013707
0.001030904
0.0005204562
0.001919256
0.00204329
0.0005762302
0.003109037
0.0004498632
0.001678161
0.001933332
0.003164563
0.0006351291
0.0005963433
0.001833707
0.0005113914
9.712724e-27
8.593209e-27
8.346414e-27
9.638458e-27
9.713411e-27
8.376242e-27
8.349215e-27
2.930182e-27
2.731447e-27
2.682083e-27
3.01127e-27
2.929998e-27
2.732259e-27
2.682721e-27
1.900316e-06
1.427998e-06
2.270422e-07
3.810609e-07
2.534889e-06
1.652181e-06
2.603715e-07
0.006085846
0.005957257
0.006073834
0.005879962
0.006001272
0.00589121
0.00600015
0.0006332899
0.0004745405
0.0006476261
0.000321495
0.001124061
0.0004419999
0.0005376921
3.998705e-27
3.528591e-27
3.523476e-27
4.019714e-27
3.998703e-27
3.528591e-27
3.523474e-27
0.0009690549
0.0009514528
0.0004482752
0.0006742469
0.0003759329
0.0007748802
0.0003604405
1.040088e-05
3.986657e-05
3.823155e-05
1.199266e-05
1.068003e-05
4.16038e-05
4.155422e-05
0.0005239109
0.0009724494
0.001356368
0.000502994
0.0008519165
0.001519785
0.001662656
0.001796239
0.00210967
0.002431021
0.001961876
0.002152151
0.001316697
0.003368433
6.857785e-24
5.266205e-24
6.862343e-24
6.03883e-24
4.83127e-24
5.844578e-24
4.71521e-24
0.0006652047
0.0007074752
0.000427185
0.001127256
0.0009340953
0.002042463
0.0004398298
2.183444e-05
1.407313e-05
2.860238e-05
5.768936e-05
3.41697e-05
2.097282e-05
4.051374e-05
3.703711e-27
3.358852e-27
3.229861e-27
3.552344e-27
3.704609e-27
3.359382e-27
3.228306e-27
8.485547e-26
6.98773e-26
8.533792e-26
8.47881e-26
6.974745e-26
8.488884e-26
6.984171e-26
1.631491e-24
1.311994e-24
1.63403e-24
1.326325e-24
1.593336e-24
1.326868e-24
1.600406e-24
1.864816e-25
1.536543e-25
1.875823e-25
1.789047e-25
1.494094e-25
1.791249e-25
1.495959e-25
4.297365e-06
1.26229e-05
2.076647e-05
2.665566e-06
4.548055e-06
1.425276e-05
2.110315e-05
0.0003599356
0.000128576
0.0002591514
0.0002529038
0.0003236928
0.0002221126
0.0003792616
4.898471e-05
1.737571e-05
3.811811e-05
2.05351e-05
5.428175e-05
1.366339e-05
3.349858e-05
0.00464948
0.00561934
0.005390275
0.006875807
0.006296005
0.008688891
0.008397529
0.0002329799
0.000347402
0.0001703258
0.0006851854
0.0003759768
0.0005629013
0.0002964689
0.00053208
0.0006133249
0.001650293
0.003313072
0.0004946998
0.004935423
0.0008397425
8.357564e-27
1.693159e-26
3.054592e-26
7.83439e-27
1.693838e-26
3.05706e-26
7.83476e-27
0.0003652471
0.0002467302
0.0004977396
0.0008487276
0.0004180221
0.0002870382
0.0006430558
0.0008175401
0.0003296198
0.000330195
0.0009680293
0.001124025
0.0005690472
0.0004022223
0.0006461011
0.0005242966
0.0002692605
0.0006275199
0.001131267
0.0008460801
0.0004651961
1.959664e-06
1.05134e-05
2.367943e-05
5.475138e-06
2.403392e-06
1.176446e-05
2.571669e-05
1.990764e-26
1.772836e-26
2.003522e-26
2.243102e-26
1.991416e-26
1.769054e-26
1.998041e-26
2.919602e-05
7.885385e-06
2.186864e-05
7.551495e-06
1.966303e-05
3.829284e-06
1.120515e-05
1.234111e-23
9.072796e-24
1.229696e-23
7.982434e-24
1.067903e-23
7.832976e-24
1.058303e-23
0.001543037
0.001799187
0.01162644
0.01155857
0.01041641
0.009548739
0.0110693
0.001408982
0.000574999
0.006156183
0.0008977915
0.001169253
0.0009277151
0.004783424
1.479247e-26
1.205376e-26
1.485651e-26
1.149739e-26
1.394744e-26
1.149991e-26
1.3952e-26
0.007124117
0.0009602784
0.01053607
0.007196651
0.006989737
0.00105967
0.01058413
0.0009176757
0.006326288
0.006145934
0.0008505386
0.0005950432
0.001131937
0.007835577
1.276749e-23
9.701535e-24
1.372269e-23
1.971466e-23
1.271557e-23
9.735222e-24
1.369693e-23
8.351844e-05
0.0001800738
0.0002192626
0.0001237387
7.982344e-05
0.0001927268
0.0002841955
2.503593e-24
4.015571e-23
2.811436e-24
2.956913e-23
7.145146e-24
2.775983e-23
7.599087e-24
3.838511e-27
3.410866e-27
3.442219e-27
3.787952e-27
3.838257e-27
3.412113e-27
3.442768e-27
3.476547e-27
3.266806e-27
3.26384e-27
8.078682e-25
3.517978e-27
3.291506e-27
5.753077e-23
3.062039e-27
3.082115e-27
2.757082e-27
2.765016e-27
3.063882e-27
3.08391e-27
2.759123e-27
0.002958806
0.00140114
0.002723153
0.0004828729
0.0005973231
0.001972906
0.003234807
0.0007897672
0.001150157
0.001868276
0.0005269919
0.0005938959
0.001523751
0.0005511377
0.001172679
0.006832051
0.007927951
0.006362458
0.001171322
0.001480147
0.0008850621
3.089383e-27
3.08771e-27
2.757036e-27
2.763947e-27
3.088022e-27
3.087461e-27
2.757378e-27
0.0005171193
0.0005673769
0.0006765232
0.001741831
0.000827405
0.001830106
0.000489759
0.0004669115
0.0007672482
0.00107358
0.001203099
0.0007677123
0.001216519
0.001885377
0.0001974336
0.0003338794
0.0009485203
0.0004351525
0.0002210326
0.0006290851
0.001053588
4.261745e-26
2.497308e-26
2.073694e-09
2.82911e-13
4.26884e-26
2.740738e-26
1.67765e-08
0.006124791
0.006257459
0.006066686
0.005911781
0.006140089
0.00626395
0.006121747
0.001196416
0.001165029
0.0005468639
0.0005423598
0.001115211
0.0005030933
0.0005082718
0.002798127
0.002454276
0.003505554
0.003719243
0.001412556
0.002391493
0.003005561
0.004588622
0.004842283
0.004581931
0.004818111
0.004600511
0.004845215
0.004593129
0.00371512
0.002998159
0.003456063
0.003158267
0.00348832
0.00311851
0.003518125
0.001319074
0.001887788
0.00141702
0.001404596
0.0009842747
0.002530095
0.002179594
5.822612e-06
9.521259e-06
0.000104914
8.297917e-05
4.810416e-06
7.633854e-06
9.084783e-05
3.603929e-05
2.822047e-05
6.282792e-05
9.780168e-05
4.330851e-05
2.9623e-05
8.253689e-05
0.0008872775
0.002893908
0.002655818
0.003683616
0.004831821
0.005940994
0.0043286
0.006217293
0.006310955
0.006333029
0.00629832
0.006239016
0.006307873
0.006312644
0.003808594
0.003968191
0.004383542
0.004301079
0.003803202
0.003914228
0.004388221
0.001046498
0.005274972
0.00365986
0.00239114
0.003921842
0.00437118
0.003320496
1.084576e-26
9.207522e-27
8.384738e-27
9.588144e-27
1.084309e-26
9.207211e-27
8.383936e-27
0.007228699
0.00631673
0.007277061
0.001227918
0.001379271
0.001117524
0.001035313
0.004611313
0.005155522
0.004727935
0.00615977
0.005930115
0.005787709
0.00551125
0.004015451
0.004914361
0.00612598
0.006010607
0.004655979
0.006188442
0.007741179
0.005107403
0.005435779
0.005404999
0.005094476
0.005253275
0.00507633
0.005234032
0.005393246
0.005407802
0.005415969
0.00520792
0.005228392
0.005227844
0.005231807
0.005415142
0.0056206
0.005507109
0.006136035
0.006082287
0.005958709
0.005964167
0.005652216
0.005625386
0.005586155
0.005930397
0.006021195
0.005872919
0.005932476
0.00350901
0.00436386
0.004824879
0.004439148
0.00355932
0.00438336
0.004832867
9.636449e-27
7.874365e-27
9.704689e-27
9.367686e-27
7.705547e-27
9.368732e-27
7.707067e-27
0.004343274
0.004392036
0.004424016
0.004414218
0.004316705
0.004389641
0.004428481
0.008961578
0.00441082
0.002602761
0.01283667
0.01141033
0.001624448
0.0009189483
0.0006986047
0.001378178
0.000706965
0.001207065
0.0007361924
0.001435605
0.0009305953
5.252157e-27
4.577614e-27
4.552838e-27
5.192943e-27
5.252138e-27
4.577615e-27
4.552849e-27
0.006580883
0.0007115962
0.0005134061
0.008687894
0.008818609
0.002245282
0.001465982
3.831169e-26
4.257782e-25
1.055966e-25
1.109622e-25
3.8342e-26
4.265606e-25
1.057585e-25
0.007304957
0.006821844
0.007750023
0.01002278
0.001575874
0.009423401
0.009952526
4.457565e-27
5.03864e-27
4.448871e-27
5.110059e-27
4.487228e-27
5.042858e-27
4.452173e-27
0.00537308
0.0006038049
0.0005695441
0.007153088
0.008159181
0.008171166
0.001582513
1.044261e-26
9.171035e-27
8.703178e-27
1.009707e-26
1.043638e-26
9.165478e-27
8.708949e-27
0.004638252
0.0005116449
0.0004370917
0.01113049
0.009749573
0.001212217
0.0008202791
2.393595e-08
1.251731e-06
1.505553e-07
1.032436e-06
2.356104e-08
1.33133e-06
1.800304e-07
6.928876e-27
5.89518e-27
5.828469e-27
6.684234e-27
7.022124e-27
6.007725e-27
5.833462e-27
0.00444917
0.004458486
0.004471341
0.004491716
0.004461559
0.004465242
0.004478021
6.764215e-08
6.490976e-08
6.753177e-08
7.242861e-10
1.897044e-09
7.332008e-10
1.91295e-09
0.004517407
0.004547375
0.004813145
0.004807859
0.004528186
0.004560319
0.004842685
7.726556e-08
7.08974e-08
7.639715e-08
1.538125e-08
4.586541e-09
1.415085e-08
4.447083e-09
0.0006926127
0.003228637
0.0007366868
0.001916267
0.001237231
0.002090013
0.0007773197
0.005409328
0.005402048
0.005429461
0.005209624
0.00523821
0.005229738
0.005256923
0.005751608
0.005661903
0.004825762
0.008092215
0.001395341
0.001264013
0.0008217323
0.004294789
0.003736576
0.004267235
0.003733631
0.004318133
0.003733273
0.00430624
0.004343769
0.004196037
0.003739765
0.003746616
0.004285413
0.004131053
0.003622954
0.006690255
0.005753478
0.005688999
0.005870473
0.005862438
0.005798382
0.005765949
0.0005976831
0.004155409
0.001833421
0.001511108
0.00100549
0.003875582
0.001756646
3.331722e-06
2.171321e-05
8.607146e-06
6.812957e-06
3.069563e-06
2.344611e-05
1.002511e-05
0.003991541
0.00347784
0.003198659
0.003317744
0.004024416
0.003495195
0.003224889
4.327381e-08
4.088307e-08
4.324852e-08
2.470084e-27
2.472339e-27
2.470821e-27
2.473763e-27
3.480643e-25
2.728243e-25
3.013442e-25
3.499128e-25
3.518676e-25
2.889856e-25
3.03435e-25
3.348591e-25
2.223157e-10
5.62854e-12
3.875391e-09
3.819043e-25
5.957619e-09
2.631941e-25
0.005463241
0.005100282
0.005084932
0.00512092
0.005248104
0.005119502
0.005254146
4.24212e-25
1.256107e-25
3.769904e-25
2.07843e-17
4.368705e-25
1.220882e-25
4.162478e-25
4.828481e-26
5.512103e-26
4.388518e-26
6.345904e-26
5.093349e-25
5.50824e-26
4.389623e-26
1.238924e-24
1.150666e-06
6.947089e-24
1.266348e-06
8.217842e-25
7.399907e-07
6.011869e-25
0.004498405
0.004863977
0.004506282
0.004922858
0.004513332
0.004890452
0.004522553
3.57338e-25
1.14809e-06
2.545764e-25
1.735695e-12
2.824031e-25
9.199552e-07
2.301542e-25
0.0004870655
0.0004233444
0.0003778764
0.0009446043
0.001265717
0.001231213
0.001171282
0.005531068
0.005474748
0.005549086
0.005358984
0.00528771
0.005370926
0.00530769
0.002412021
0.003440733
0.001481474
0.002370167
0.003512434
0.001537716
0.002437591
1.159876e-25
4.114373e-24
4.806291e-25
4.242069e-25
9.569072e-26
7.362547e-26
3.41523e-25
0.0004500754
0.0005468306
0.001129879
0.0009466941
0.00128037
0.00107573
0.001672491
0.0008720655
0.000637542
0.001122701
0.0007483315
0.001189895
0.0008519129
0.0007257772
0.0002287036
0.0006378519
0.0002826946
0.0003518498
0.0003748884
0.0008406108
0.000434679
8.359637e-05
2.320108e-05
9.947114e-05
2.285755e-05
8.397202e-05
1.978945e-05
9.904439e-05
6.019958e-05
1.470494e-05
8.474885e-05
1.35076e-05
5.7008e-05
1.934818e-05
8.171687e-05
3.271342e-05
6.762882e-06
4.502023e-05
1.03839e-05
4.136179e-05
1.070287e-05
4.961601e-05
0.0008630408
0.001516911
0.001750709
0.001749106
0.001372585
0.002324968
0.002813266
0.001577707
0.001238542
0.001189343
0.001652194
0.002092693
0.002217873
0.001653839
6.682486e-05
0.0001783263
0.0001852569
6.065402e-05
8.880313e-05
0.0001700958
0.0002388514
0.002263289
0.0007516121
0.0008861917
0.004087977
0.0005567381
0.005473884
0.0007855033
5.317103e-06
2.94617e-06
6.33505e-06
2.026023e-05
8.530723e-06
4.806598e-06
1.016301e-05
2.17581e-05
4.102384e-06
2.403035e-05
5.581923e-06
2.713179e-05
7.874523e-06
3.361672e-05
0.00159482
0.002398108
0.001806461
0.002750477
0.001876239
0.002639856
0.008264885
7.028851e-27
8.356049e-27
7.442436e-27
8.948002e-27
7.078196e-27
8.403444e-27
7.451229e-27
0.003214714
0.0009020122
0.0008031559
0.0006964812
0.001299277
0.00109548
0.001362524
0.0001820043
0.0001474264
6.755426e-05
0.0001499554
0.0003219748
0.0002360972
0.0001056788
0.004925386
0.005038753
0.005006339
0.004491657
0.004660245
0.004428796
0.004615041
4.215882e-25
3.465372e-25
4.234902e-25
4.03094e-25
3.28556e-25
4.036323e-25
3.289389e-25
1.685826e-09
3.382425e-27
3.850612e-27
2.948664e-27
2.134292e-09
3.593305e-27
4.099441e-27
1.788552e-26
1.38417e-26
1.544636e-26
1.573433e-26
1.785271e-26
1.381406e-26
1.54224e-26
0.0002623152
9.320199e-05
0.0003868466
5.057745e-05
0.0002584789
9.45035e-05
0.000376462
0.005292996
0.004994627
0.004905686
0.006250196
0.006121573
0.005870029
0.00574853
1.056428e-17
4.141049e-24
3.81136e-25
1.840366e-24
2.390928e-25
5.064447e-24
3.561242e-25
4.558365e-27
3.470123e-27
4.705855e-27
3.371465e-27
4.558159e-27
3.469916e-27
4.705834e-27
0.0006178903
0.0004316716
0.0003291396
0.001471651
0.001377381
0.00139947
0.007633817
4.588676e-05
0.0001437364
0.0001613256
5.618791e-05
5.104807e-05
0.0001865611
0.0001523123
0.001460297
0.003354721
0.001406449
0.0009735751
0.001473853
0.003483524
0.001525682
0.005501504
0.004428455
0.004662199
0.005396865
0.005589892
0.004336065
0.004521375
0.0006840076
0.0008687934
0.001878559
0.003572956
0.0006562017
0.0007347073
0.004875074
2.732529e-08
2.161744e-17
1.981574e-08
1.114282e-08
2.799699e-07
8.562681e-09
1.979397e-07
0.004799505
0.004633802
0.004738102
0.002891565
0.003095783
0.002991423
0.003199739
0.001231173
0.001048788
0.01026498
0.008903291
0.01031366
0.008805447
0.009990873
0.0002280159
0.0001252207
4.236851e-05
0.000586873
0.0002298274
0.0001355195
4.414938e-05
8.511363e-25
1.103075e-24
1.320266e-24
1.25055e-24
8.039719e-25
1.068641e-24
1.279317e-24
0.005925363
0.005860422
0.005820108
0.005843791
0.005880968
0.005724335
0.005803084
0.0001229108
0.0003539097
0.0001002453
0.000244262
0.0001281404
0.0004029161
0.000113922
4.421517e-27
4.088737e-27
4.539e-27
3.930026e-27
4.423622e-27
4.082417e-27
4.533062e-27
0.004995796
0.00258211
0.002501539
0.00945557
0.01023812
0.005177994
0.006419642
0.005102115
0.009022044
0.0009516509
0.01110524
0.005334549
0.001867564
0.001037669
1.73878e-26
2.045205e-26
1.61764e-26
1.872218e-26
2.049342e-26
1.618284e-26
1.872779e-26
9.323645e-05
4.420353e-05
5.499772e-05
0.0001924506
0.0001376478
5.779871e-05
8.155307e-05
4.437625e-27
3.900548e-27
4.432116e-27