/*--------------------------------*- C++ -*----------------------------------*\
| =========                 |                                                 |
| \\      /  F ield         | OpenFOAM: The Open Source CFD Toolbox           |
|  \\    /   O peration     | Version:  1912                                  |
|   \\  /    A nd           | Website:  www.openfoam.com                      |
|    \\/     M anipulation  |                                                 |
\*---------------------------------------------------------------------------*/
FoamFile
{
    version     2.0;
    format      ascii;
    class       volScalarField;
    location    "40000/fluid";
    object      p;
}
// * * * * * * * * * * * * * * * * * * * * * * * * * * * * * * * * * * * * * //

dimensions      [1 -1 -2 0 0 0 0];


internalField   nonuniform List<scalar> 
4960
(
589817.9
624247.8
608353.5
591342.5
653960
660456.5
617655.5
653033.4
611277.9
599885.8
624235.2
675727.1
591642.1
637758.3
677621.5
627968.4
638668.7
597653.1
599305.3
652735.3
651557.3
613297.7
612864.1
621425.3
641324.3
643759.7
650860.4
592134.8
647351.3
639576.3
658602.8
688680.8
648837.8
645080.6
643119
621428.1
610173.6
637393.9
638745.5
624598
623452
623714.5
597013.6
647167.6
682968
642989.8
631266.6
655476.1
629609.3
676472.6
643089.6
615045.4
612022.2
624125.7
605479.5
623500.1
614450.3
607527.7
624476.3
610290.6
668912.7
603666.7
607800.3
590123.8
689116.3
641339
685068.4
608713.3
679600.9
601714
631551.2
608766.8
611017.2
636585.6
637379.2
647653.3
595920.8
619801.6
636096.1
665437.1
597367.1
648316.6
648092.3
589991.6
626312.7
618453
643201.4
637766.7
642649.9
638098.3
635428.1
636838.7
642368.1
637982.7
617332.9
668476.3
648287
610834.2
627567.5
638122.4
633255.1
635468.2
593088.8
631519.7
625510.8
643231.4
589526.2
590546
589291.1
614864.1
628802.3
618019.6
637517.2
630052.8
634334.7
599817.7
632969.9
631674.3
631196
636972.9
616178.7
612546.8
594370.6
648861
644479.2
590167.3
652016.5
632877
604593.3
620294.5
597673.9
636777.2
650391.5
631637
630061.3
635576.9
639434.5
628931.4
634802.1
636620.6
635538.1
622772.7
663273.3
666050.8
659204.3
675146.3
660893.4
637357.8
660433
623688.8
636110.9
666635.6
673530.5
615041.9
612241.5
647452.9
689037.8
650939
667292.4
672175.6
677088.2
670258.8
668956.1
589988.4
677928.2
632571.2
632806.5
614052.3
640574.9
609054.8
647543
622702.3
646227.6
636007.8
650423.6
635591
626302.4
673224.8
644547.5
677338.4
649499.6
666730.9
676808.1
647803.6
668587.7
678472.9
666767.3
647676.2
616397.9
669320.3
629546.5
613465
613022.2
691143.6
610618.7
620830.4
612697.5
684067.9
612160.3
653781.5
681364.8
667043.5
608326.4
632571.1
632074.9
634207.2
631955.7
631515.2
631235.3
634557.8
653116.2
636856.7
639567.2
622280.4
630986.1
660482.6
598450
642665.2
627513.2
689818.7
589924.2
654655.2
618201.1
643656.7
684948.3
609023.6
597726.2
655325.4
636576
664935
663243.3
647390
601452.7
677933
645142.8
661245.3
597987.8
663937.8
661300.7
643620.9
657046.4
666251.9
592051.3
626935.2
649579.2
644656.6
660092.4
603041.9
622294.5
660819
653328
640831.5
629584.2
636970.6
626722.4
658828
598109.6
640692.4
638352.6
641835.7
653590.8
640961.4
660064.9
662451.1
600798.7
589358.8
615593.5
643427.5
634566.6
654009.6
670330.4
644609.3
633698.1
672759.2
660315.8
652730.8
603921.4
643122.2
647001.2
652817.1
684133.6
658066.4
672434.4
635837.9
630043.3
610912.4
631083.2
657249.6
635425.9
657156.5
635448.7
659571.3
659928.2
628497
604421.4
647853.4
658001
682725.9
697543.6
599081.8
661950.2
687574.2
658482.1
619676.5
654487.7
649926.6
659338.5
621266
601747.3
614693.6
658840.6
660027.3
603730.6
662870.5
654044.2
639312.9
617021.6
637327.9
627024.1
662235.3
662893.9
663696.1
663205.3
662215.6
663067.4
663479
661912.9
663708.5
663108.4
663702.1
622267.7
629744.6
618969.3
637140.1
613666.4
609976.3
641584.4
613255.8
622914.5
649926.7
678967.2
662939.8
662308.8
655558
673029.9
657492.1
666641.7
608525.6
615159.3
615249.7
601803.8
654324.3
601277.7
614248.4
619411.9
641081.2
630846.6
651844.7
608104.5
655296.8
620748.3
627424.9
643636.2
628127.8
662612
607972.4
666423.3
662699.5
653537.1
601418.9
646780.8
645260.3
627660
608565.8
626964.9
666158.9
665119.4
647218.3
670010.7
649651
609993.2
675878.3
604486.7
654965.3
655643.8
627906.6
628059.5
629517.3
628963
629519.7
611510.6
655520.9
659887.9
651665.1
691712.3
609132.3
663085.4
633559
645664.8
604595.2
645295.2
628325.5
629312.7
649850.3
645397.8
646914.7
615539.9
683238
681025
699795.6
666328
658067.7
616838.8
672904.1
644342.2
674601.7
679607.6
646850.6
607092.6
614392.3
630200.7
665450.5
620714.5
629798.8
597767.4
628458.2
657296.3
605844.5
669198.8
645034.3
632599.5
649845.8
639572.7
618494.9
653948.3
644731.8
652987.9
603729.8
635887
668093.9
599791.1
615625.2
649808.1
682951.1
646615.2
663623.9
635744.3
649453.9
602402.6
631485.9
655602.5
619443.2
612813.3
674568.9
633803.1
609337.4
679204.2
599524.2
645618.5
647637
651892
630868.5
670187
619036.9
675538
612131.9
619814.7
658132.5
688603
639262.5
659270.7
650167.6
605159.6
625643.2
651334.5
645414
642518.7
606299.8
615951.3
601290.4
662993.1
589554.5
589602.4
589840.3
589179.3
654020.4
653333.1
619804.3
669868
604287
598391.1
600248
657903.9
603463
617763.1
656946.5
661425.8
620291.6
616983.3
651300.1
629929.7
658627.2
661786.9
659186.1
658918.9
600647
605933.6
659255.6
658268.7
596290.5
624581.8
614366.2
656095
608188
655610
589888.1
702263.2
659259.5
663325
629011.8
630555.4
657497.2
602968.4
677637.6
622043
651960.1
635152.7
652617.1
621484.9
624926.1
625903.1
607789
618170.9
663214.4
662126
606933.9
666143.7
660475.6
614169.1
596857.8
621443.6
659223.3
666802.5
608692.2
658231.3
655880.6
686160
659305.5
627835.5
658889.6
652959.6
652844.8
650702.8
599203.8
649238.5
610081.5
639389.2
652376.5
623277.1
665217.5
646741.8
653943.5
646646.1
658450.4
670471.2
645892.5
642354.8
614112.9
608035.5
606508.5
621241.1
653805
694539.6
605494.2
659284.5
604297.1
612149.6
672772.8
623939.8
688169.1
647033.8
626457.9
604741.6
616240.3
681897.2
656453.2
653212.1
677149.2
594414.3
628817.4
622896.4
623462.5
653287
628118.1
670204.3
677746.2
658095.7
683847
692254.6
636246
594472.6
604481
615577.2
655255.7
591245.7
609866.3
597246.6
696431.2
597083.8
653554.7
651074.4
687393.5
693825.8
616791.1
658737.9
702843.3
659332.9
597000.7
589324.9
590563.4
589708.9
589817.9
589708.8
594447.7
594152.7
594447.7
594152.6
621157
621355
624501.3
624257
621165.6
621363.3
624514
609066.2
606878.2
610517.5
608353.6
609068
606878.8
610519.6
591726.3
591343.7
591727.5
595855.1
595405.1
595856.5
595406.6
651784.3
651548.7
654523.1
653965.5
651693
651562.9
654442.7
658037.5
660347.3
657652.2
660475.4
658053.4
660367.3
657669.8
617619.7
621422.9
621789.9
617661.8
617623
621428.3
621798.9
656531.7
655056.3
654585.1
653110.2
656367.4
654753.7
654544.5
614152.2
615000.5
610572
611287.2
614162.4
615015.9
610577.6
601193.2
599392.3
601346.9
599883.2
601192.7
599391.6
601345.3
622423.6
625323.9
620797.7
624252
622437.3
625343.6
620810
673490.6
673810.5
675333.2
675739.7
673472.9
673794
675336.1
591643.3
597267.1
594525.4
595570.2
597269
594526.6
595571.8
637616.7
641029.5
640528.5
637794.9
637654.5
641092.6
640561
678349.8
679018
676670.2
677532.3
678360.5
678986.5
676656.9
630011.8
626173.4
632135.1
628300.5
630195.3
626623.9
632283.1
633519.4
636547.6
635641.5
638657.7
633414.7
636554.6
635725.9
597986.9
602010.5
601561.8
597652.9
597986.7
602010.1
601561.4
604970.6
600425
603500.1
599305.3
604970.6
600425
603500.1
654645.4
654959.8
652456.3
652680.5
654748.9
655012
652566.3
651744.9
653265.4
653472.1
651520.9
651690.9
653102.7
653403.4
609996.2
615735.5
612682.9
613296.9
609995.6
615734.1
612682.1
610428.4
610140.8
613197.4
612864.1
610428.4
610140.8
613197.4
617746.3
617946
621366.2
621426.4
617747.9
617946.4
621369.2
641419.1
639159.4
643633.6
641343
641582.6
639241.3
643660.2
645065.7
640395.6
642221.5
643764.4
645070.2
640398.7
642224.6
648717.9
651354.1
652778.5
650863.4
648736.2
651347.3
652740.2
592589.5
592136
592590.6
596252.5
596624.1
596253.9
596625.5
643389.9
645143.1
645613.9
647155.7
643503
645076.5
645560.5
642260.3
643837.2
640902.8
639638.3
642331.1
643914.5
640974.8
655763.6
658185.4
656493.4
658442.8
655719.5
658015.2
656454.7
688914
690485.4
687794
688703.5
688853.2
690463.5
687729.3
646706
647848.5
649969.5
648609.2
646457.2
647619.5
649807.5
647090.8
649024
646722.6
645106.8
647139.8
649067.2
646740.4
641645.3
644300.9
645488.6
643160.9
641694.4
644355.6
645586.7
624149
623485.9
620822.4
621428.1
624149
623486
620822.4
609802.9
612238.6
612131.9
610176
609805.1
612242.1
612135.4
637679.8
640425.5
640996.1
637417.7
637716.3
640459.6
641043.3
640254.8
642253.9
643780.3
638771.5
640260.9
642324.4
643740.1
618976.7
622840.5
621703.7
624617.8
618984.9
622852.8
621717.6
618369.9
621333.9
621298.1
623466.4
618378.1
621346
621307.9
623839.8
620343.7
621247.9
623730.7
623855.1
620355.1
621261.5
600813.1
597060.2
600672
597013.4
600812.8
597059.9
600671.7
647293.5
650013.9
649607.1
647128.9
647287.6
649979.5
649546.3
680286.6
680807.4
682392.2
682926.3
680385
680957.6
682445.6
643912.8
645750.9
646388
642940
643879.5
645721.4
646350.6
628636
631568.7
628316.7
631266.9
628636.3
631569.2
628317
652445.9
654988.6
653841.8
655434.5
652362.3
654880.3
653769.9
632599.2
629054.2
631996.8
629609.8
632600.1
629054.6
631997.4
674199
675294.7
675835.8
676493.8
674214.6
675318.4
675959.3
645069.4
645325.8
642550.7
643101.1
645135.9
645340.4
642583.5
615402.4
612548.6
612865.8
615051.7
615409
612552.6
612870.2
616691.6
615888.3
612691.3
612039.1
616724.7
615911.8
612715.9
621645.4
622360.3
624295.4
624140.7
621655.5
622371.8
624308.5
605585.2
601369.7
602542
605479.4
605585.2
601369.7
602542
620327.8
619397.9
622461
623547.3
620369.1
619429.4
622497.9
614744.6
611281.9
617214.9
614450.4
614744.6
611282
617215
609437.5
608083.2
606905.7
607528.6
609439.6
608084.3
606905.7
627018.4
624476.3
627018.5
628046.5
625380.9
628046.5
625381
608009.4
607980.3
610398.4
610293.3
608011.1
607981.8
610401
669784.7
671073.5
667898.2
668807.3
669744.7
671009
667869.9
602932.7
606054.3
606597.1
603667.3
602933.5
606055.6
606598.4
604634.6
607686.4
604601.8
607800.3
604634.6
607686.5
604601.8
590028.1
590123.8
590028.1
593995.4
594260.7
593995.4
594260.7
688914.4
688919.8
688729
686012.2
686715
685957
686642.7
644694.2
644856.3
642052
641362
644678.6
644919.8
642082.9
686365.6
684247.4
685867.6
684853.8
686437
684189.3
685823.2
608466.7
611624
611693.5
608715.7
608469.2
611627.6
611697
676438.7
678379.3
677065.2
679727.3
676472.6
678472.6
677095.2
602265.4
605546.2
605152.8
601715.2
602266.3
605547.7
605154.5
630505.1
633694.4
635168.7
631552.1
630505.8
633695.5
635170.1
611692
608824.1
611215.7
608766.7
611695
608824.6
611216.8
611669.7
609120.9
610138.8
611020.9
611674
609123.1
610141.8
638097.5
640653.5
639082.1
636624
638153.2
640693.4
639120.4
638271.3
640712.6
639987.7
637403.8
638287.9
640731.1
640017.8
647472.7
650455.7
650070.3
647646
647518.2
650447.8
650011.6
596766.4
595921.1
596766.6
600420.8
599568.1
600421.1
599568.5
616943.2
619675.7
616816.6
619801.7
616943.2
619675.8
616816.6
636406.8
634331.4
638376.5
636083.6
636387.6
634317.6
638361.4
663858.7
663414.3
661772
662977.2
662660.1
661697.5
662329
600984.2
601212.5
597178.1
597366.8
600983.9
601212.1
597177.8
645439.8
646024.9
648894.7
648333.5
645450.4
646033
648907
648103
650337
650266.7
648222.7
648059.9
650343.3
650201.9
589961.4
589991.6
589961.4
593930.7
593916.9
593930.7
593916.9
625058.4
622866.6
624019.7
626345.7
625084.4
622892.9
624053.8
616937.5
617403.8
619401.3
618461
616945.1
617411.9
619411
643824
645904.5
645651.5
643253.4
643877.6
645944.7
645663
637863.9
640607
641175.7
637809.3
637893.8
640654.7
641224.6
645307
644859.6
641919.7
642718.5
645368
644972.3
641988.2
640780
639983.8
642750.1
638160.7
640834.8
640032.7
642807.6
634276.6
637622.8
636362.8
635488.1
634339.7
637647.4
636390.4
634307.1
635534.1
638052.3
636849.5
634332.3
635545.3
638071.4
639157.1
642848.1
639383.9
642374.7
639161.1
642853.1
639387
640588.3
636867
639422.8
637983.1
640588.8
636867.2
639423.1
619666.8
618706.6
616736.1
617340.9
619677.6
618716.4
616744.3
666725.3
666764.4
668387.9
668498.4
666784.2
666848.3
668409.6
647887.5
649821.2
650174.5
648274.1
647909.8
649866.1
650198.7
613727.3
610657.7
613475.1
610834.3
613727.4
610657.7
613475.1
628782
626318.9
625184.4
627619.3
628854.3
626378.3
625228.6
638066
640438.5
640185.1
638107.7
638048.4
640420.1
640163
632272.2
634086
635201.2
633289.1
632294.1
634113.4
635237.5
636468
638288.8
639184.4
635490.4
636493.7
638310.5
639204.8
593695.1
593089.8
593696
597537.6
597039.9
597538.6
597041.1
629671.5
632905.6
630981.6
631575.6
629722.4
632966.6
631040.2
623689.5
622395.3
624348.1
625528.7
623704.8
622408.4
624364
639920.7
639050
641876
643232.4
639921.4
639050.5
641876.7
589442.2
589526.1
589442.1
593610.8
593840.3
593610.6
593840.1
590915.7
590547.2
590917.1
594238.3
594862
594239.9
594863.5
589318.1
589291
589317.9
593211.7
593210
593211.6
593209.8
615119.7
617970.1
618294.1
614869.4
615125.3
617976.9
618301
631077.7
628380.5
630334.6
628830.1
631108.8
628403.8
630357
619149.2
615570.1
616461.5
618030.7
619164.1
615578.8
616472.9
635349.8
639391.2
637179.9
637589.5
635366.1
639519.8
637215.1
628563.4
628319.6
626959.7
630093.4
628594.8
628358.3
626990
632321.7
635860.1
633774.1
634372.6
632363.1
635889.3
633782.7
599818.5
604434.5
603540.8
601633.3
604435.6
603541.7
601634
630425.5
629344.1
631849.1
632990.8
630445.9
629361.6
631892.1
633027.9
630403.8
628718.5
631701.9
633037
630423.4
628735.9
632899.1
631572.6
629973.7
631220.4
632926.2
631608.7
630002.8
635061.5
636717.6
638901.7
636955.9
635046.5
636699
638880.5
613525.8
616041.7
619341.2
616178.4
613525.6
616041.6
619340.9
613288.5
609266
609873.9
612551.6
613295.5
609267.1
609876.9
595117.9
594371.4
595118.4
598130.3
598798.5
598131.2
598799.1
650962.3
651841
649768.6
648635.3
650886.6
651776.7
649637.1
645935
646491
647251.9
644555.8
646031.3
646575.6
647451.9
590331.5
590167.3
590331.5
594798.2
595542.8
594798.3
595542.8
652085
653789.5
654141.8
651913
652010.7
653693.1
653932.6
630074.9
631659.5
634630.5
632895.3
630272.7
631684.9
634606.2
607847
607252.8
605465.2
604594
607848.5
607254.1
605466.1
617456.8
618407.8
621366.3
620315.3
617472.3
618429.9
621394.9
598526
597674.1
598526.6
601499.8
602496.5
601500.1
602497
633815.5
636125.6
633231.4
636777.7
633815.9
636126
633231.7
647673.4
648932.8
650974.7
650394.5
647675.4
648934.8
650977.4
635301.9
632500.6
634273.4
631637.2
635302.2
632500.8
634273.6
631417.9
627494.3
628765.9
630152.9
631506.1
627572.4
628970.2
632728
634261.3
637120.1
635603.1
632755.9
634288.9
637140
641141.7
641346.4
643071.3
639600.3
641384
641565.5
643204.6
629704.4
626903
626191.9
628931.5
629704.5
626903.1
626192
632225.9
635767.1
633208.8
634819.7
632238.7
635780
633219
633499.3
635871.7
638164.7
636670.9
633542.7
635911.5
638219.1
633079.3
634920.2
637397.7
635591.8
633121
634957.8
637441.4
621634.9
624352.8
626010.3
622768.6
621630.7
624347.9
626005.1
663382.3
664998.5
664977.7
663392.3
663486.2
665081.4
665071.2
666133.6
665326.4
663066.6
663297.4
665386.8
663093.7
663330.6
657225.4
657024.3
658727
659376
657417.1
657233.9
658825.8
673098
672892.7
675320.4
675137.7
673096.5
672891.5
675317.8
660405.4
661967.7
661844.9
660892.7
660429.6
661821
662006.5
637626.6
640123.2
639444.8
637398.6
637670
640170.5
639508.2
657522.5
657869.3
660567.9
660452.9
657535.7
657880.7
660585.7
622287.8
620347.9
621607.1
623710.3
622304.6
620362.3
621626.1
637712.5
639366.3
637742.7
636190
637801.1
639631.5
637810
666666.5
668387.4
668286.8
666700.8
666750.5
668440
668329
673937.4
676172
675834.6
673518.9
673944.2
676138.7
675809.6
620790.8
616173.1
619591.8
615059.3
620907.5
616096.4
619647.2
608834.1
607199.4
610549.3
612241.6
608834.1
607199.5
610549.4
649752.8
647507.3
649571.5
647511.1
649724
647526.8
649493.5
689055.9
687838.9
687814.1
684556.6
686357
684617.9
686375.8
649289.2
650527.2
652336
651025.5
649407.3
650606.3
652460.4
667446.5
669820
669838.9
668532
670481.7
668581.5
670473.5
674552.3
672085.1
674549.7
674868.9
672607.9
674869.7
672605.7
677172.2
674527.8
674621.7
676204.4
674190.6
676243.5
674181.6
672405.8
670070.5
672204.8
670343.1
672209.4
670271
672102.5
668693.4
670912.6
670846.7
668962.4
668699.8
670915.4
670842.9
590016.3
589988.4
590016.3
594317.5
594067.8
594317.5
594067.8
680307.6
680038.3
677733.6
677922
680323.5
680044.3
677729.8
636926.8
633025.5
637274.8
629930.4
634332.6
630486.1
634604.9
630286.3
633828.4
631261.5
632827.4
630306.3
633851.1
631277.5
611174.6
611001.7
613911.7
614052.4
611174.6
611001.7
613911.7
643643.2
640711.9
643611.3
641057
637983
641027
638039.2
606930.3
608563.2
606341.8
609057
606931.9
608565.1
606343.1
649377.9
647463.6
648922.8
647505.7
649261.7
647306
648776.5
622532.5
625689.7
625409.2
622702.4
622532.6
625689.9
625409.3
648475.6
646062.4
648250.4
643698.3
646002.9
643591.6
645862.1
632765.5
632329.7
635972.4
636010.4
632767.1
632330.9
635974.4
652032.1
650230.9
651861
649740.5
647980.8
649348.2
647741.5
633178.9
635783.6
633809.4
635577.7
633168.7
635767.9
633796
622654.6
622737.4
625945.9
626302.8
622654.9
622737.6
625946.2
673315
675629.3
675470.7
673219.9
673304.9
675619.8
675466.1
647017.9
644547.9
647018.5
645705.1
648114.6
645705.6
648115.4
679813.1
677539.5
679653.7
677359.9
679816.1
677544.2
679659.2
651983.1
649500.4
651984.1
653036.4
650566.4
653037.7
650567.3
663329.2
666924.5
663464.7
666734.8
663540
666901.8
663527.1
679080.6
676814
679078.1
677136.7
679379.8
677132.3
679381.4
650244.4
650294.7
647582.8
647888.5
650291.1
650321.9
647703.1
670885.2
668693.1
670953.8
668641.8
670886.6
668629.4
670931.8
678164.5
680591.7
680909.9
678478.3
678160.8
680625
680956.4
669154.9
667468.3
668901.3
668648.5
666825.2
668697.4
667046.5
649745.9
649758.7
647556.9
647627.3
649733.9
649702.2
647535
615209.6
619541.2
617883.3
616406.2
615216.5
619552.2
617893.8
671322.3
671893.3
670085.2
669276.2
671292.3
671843.7
670040.1
632058.7
629546.5
632058.8
630640.7
633193.5
630640.8
633193.7
608800.5
613785.9
609708.8
613468.1
608801.9
613787.4
609709.6
609252.1
614783.2
611312
613029.8
609257.7
614792.1
611318.2
691150.8
694927.4
694938
693567.2
691010.5
693574.4
691019.8
607938.2
611754.6
608192.7
610625.2
607944.1
611761.6
608198.7
623759.6
620602.4
624538.7
620826.2
623753.7
620598.8
624532.6
608415.5
611918.4
608204.7
612703.2
608419.1
611922.8
608208.7
682080.2
681845.8
684354.2
684065.2
682097.5
681844.7
684351.1
608379.8
612814.1
608539.5
612164.8
608383.2
612820.2
608543.1
654778.3
653442
654479.1
651139.4
652221.3
650983.4
652077.4
683488.1
681375.3
683512
683777.6
681603.6
683780.3
681597.8
667141.7
667839.6
666228.3
667080.2
667844.2
666265.6
667071
611646.8
611786.1
608277.5
608329.2
611650.6
611790.2
608280.7
635167.1
632646
635141.1
632594.4
635197.2
632675.6
635161.8
634759.3
632242.3
634880.7
632125.8
634790.3
632271.1
634916.2
631916
635360.5
632237.6
634249.6
631943.4
635409
632291.8
634744.9
632110
634695.6
631985.8
634784.7
632144.9
634744.8
634576.5
631695.7
634635.4
631534
634603.7
631720.1
634667.8
634302.8
631364.1
634463
631244.6
634319.4
631377.6
634484
633133.8
634624.9
636148
634594.5
633181
634678
636199.8
655158.2
655199.6
652844
653034.2
654966.6
655063
652708.7
637082.3
639682.4
639965.3
636862.6
637096.7
639694.9
639991.2
638281.3
641250.5
640037.9
639523.7
638255.6
641132.8
639989.9
620795.3
620042.4
621289.9
622294.4
620807.3
620053.2
621302.3
633962.2
631105.6
634139.6
630985.5
633963.7
631109.4
634147.3
657481.1
659675.3
657418.4
660955.4
658071.2
660117.9
657756.7
601803
602423.1
598031.3
598450
601803
602423.2
598031.3
644670.3
644042.5
645920.4
642705.3
644503.3
643714.3
645571
629361.3
628201.7
626403.4
627533.2
629382.9
628225.3
626423.4
689730.4
686612
686649
685607.9
687501.7
685517.1
687565.7
589860.3
589924.3
589860.6
594053.9
594546.8
594054.4
594547
655203.5
652465.1
651619.5
654664.2
655211.1
652470.1
651625.3
621603.5
620194.1
623133.2
618201.2
621603.5
620194.3
623133.5
646072.1
643360.8
645699.6
643655.5
646064
643353.6
645694.5
687428
684919.5
687568.6
683237.4
682446
683313
682479.2
611815.9
609381.1
611952
609025.9
611819.3
609383.3
611955.4
600820
598712.3
600139.9
597726.4
600820.2
598712.3
600140.2
655974
655488.8
656182.5
653112.7
653955.8
653130.9
654097.3
636682
639355.9
639474.7
636567.3
636679.3
639351.3
639473.6
665495.5
663439.5
663007.1
664946.7
665456.1
663456.3
663034.9
664985.5
663305.9
665149.2
663363.4
665047
663470.4
665121.6
647434.8
650019.3
650197.5
647429.1
647518.3
650153.5
650323.9
601712.4
601450.8
601709.9
605972.1
605864.2
605971.1
605862.9
678115.9
675607.4
675524.2
673995.1
676422.7
673926.5
676494
646942.1
645984.3
647740.7
644727.5
646630.8
645871.5
647667.6
660727
659005.6
657973.5
661267.2
660749.3
659023.6
657987.9
603353
601533.3
599022.2
597989.7
603355.4
601535.8
599024
665397.9
663836.2
665464.5
663144.7
665097.4
663229
665152.2
659218.1
660842.2
658608.6
661331.5
659240.7
660866.1
658631.4
643017.9
640294.4
640140.9
643622.4
643019.7
640295.4
640142.2
657996.7
656917.9
657860.3
655669.2
654787.4
655562.9
654688.1
664457
667160.9
665868.1
666252.2
664530.6
667142.5
665902.1
592051.3
595806.8
596915.4
599193
595806.8
596915.4
599193
625462.3
623936.1
625260.1
626959
625484
623954
625279.2
648650.6
646649.3
645825.5
649582.5
648654.4
646651.5
645828
644817.7
642053.5
642210.4
644672.5
644858.3
642058.3
642214.3
661670.3
661822.5
660391.9
660252.9
661792.4
661940.8
660529.1
603375.5
603041.1
603375.4
607678
608209.1
607684
608220.2
621724.4
623426.6
620640.6
622308.5
621738.2
623441.8
620652.8
659680.4
660170
660517.8
659895.3
664095.4
659545
663668.1
651120.4
652537.8
650441.1
653288.8
651139.7
652537.1
650446.7
642336.5
639189.7
640548.6
641044.3
642097.6
639323.9
640578.7
630450.9
626935.2
627446.4
629595.5
630467.8
626944.7
627464.1
639055.3
639434.8
641068.8
636999.7
639048
639441.6
641047.6
626404.7
624899.6
624603.2
626744.4
626426.7
624916.3
624621.2
659522.8
658621.1
659582.9
656440.1
657176.5
656290.6
657021.7
603140.5
598883.1
602118.3
598110.5
603141.5
598883.5
602120
638145.3
638087
640545.7
640681.6
638137.1
638075.4
640530.9
640414
641782.6
640205.7
638326.6
640396.6
641746.8
640189.2
642070.8
638879.2
639001.7
641846.6
642079.7
638885.4
639006.9
650538.3
649182.3
651963.1
653601.5
650544.9
649189
651972.4
644106.9
642574.1
642701.5
640952
644159.8
642547.3
642734.4
659931.5
661708.3
661810.4
660017.7
660102.6
661793.2
662057.8
661870.8
661684.2
661532.5
660286.5
661624
659794.1
660725.7
604183.2
601836.3
602364.1
600790.5
604180.2
601824.6
602361
589324
589358.7
589323.9
593429
593295.3
593428.9
593295.1
616504.7
618822.6
619759.7
615599.8
616513.2
618830.4
619768.6
644403.2
642880.7
641732.2
643121.5
644277.5
642755
641778.3
637072.9
634566.8
637073.1
635726.6
638253.9
635726.8
638254.1
652044.8
651853.9
653780.9
654074.3
652129.6
651884.4
653666
670894.7
671955
672686.4
670401.8
670880.6
671998.8
672731.3
641988.1
644593.9
641979.1
644577.3
641965.1
644579.1
641966.7
630695.5
630846.5
633812.2
633690.9
630689.7
630843
633808.7
671087.9
672508.6
673949.6
672722.7
671062.8
672487.8
673937.6
660221
660208.5
659349.2
657925.8
657929.4
657688.2
657634.5
653419.4
650650.2
650142.4
652802.8
653467.9
650689.1
650190.3
599077.3
598490.3
602783
603921.1
599077.2
598490.2
602782.7
645456.5
645314.4
642949.8
643108.1
645436.3
645292.9
642930.3
644354.1
644004.1
646518.1
647031.8
644373.1
644015.8
646535.2
652354.6
654387.7
654763.6
652843
652276.2
654242.2
654812.6
681727.6
683883.1
681466.2
683404.4
681282.5
683306.3
681205.3
656053.1
655773.1
658076.4
657945.9
656004.5
655650.6
657942.3
668963.5
672427.7
668790.8
671212
667991.4
670825.4
667769.2
637043.8
637525.6
638788.6
635866.6
637106.9
637632.8
638897.3
631541.9
629059.3
627567.6
630067.9
631562.1
629078.9
627586.3
612785.8
608435.5
609400.7
610912.3
612785.7
608435.5
609400.7
633461.2
631118.2
629025.8
631117.6
633505.8
631154.2
629056.6
659052.8
655157.7
656243.4
657350.8
659067.7
655238
656292.4
632510.6
632447.5
635452.2
635422.4
632507.9
632446.8
635451.6
655696.9
656260
654211.9
657172.8
655712.5
656276.5
654224.4
635492.9
632637.2
632838.4
635442.1
635483.4
632632.2
632830.8
663365.2
658883.4
661588.5
659461.1
663050
658787.2
661441.8
661188.9
659972.9
661013.5
657765.8
658860.5
657921.4
658630.3
627307.5
626583
625186.2
628516.7
627326.5
626600.9
625202.6
604949.5
604414.2
604916.1
609965.6
610852.8
609937.8
610751.6
647457.8
644691.2
645005.3
647877.3
647488.4
644709.8
645019.8
658756.8
658515.7
659108.7
657093.2
656674.9
657274.6
656904.7
685238.2
682368.3
684714.5
682763.4
685265.4
682385.3
684726.8
700136.8
697477
700094.5
696910.3
694838.1
696827.9
694692.1
603955
601675.9
601711
599081.7
603954.9
601675.8
601711
662427.5
662040.3
662634.2
659613.2
660080.7
659518.4
660183.5
685556.7
687438.2
685357.9
684800.6
683178
684726.8
683266.7
658432.1
656014
656478.3
658240.6
658452.2
655839.2
656200.9
619871.9
617055.7
617095.7
619676.7
619872
617055.8
617095.8
656986
654488.9
656987.6
655555.3
658104
655556.8
658106
649996.9
647903.6
648475.1
650053.5
650137.2
648041.9
648644.7
658891
659017.4
659098.2
658316.5
657292.2
657934.2
657227
620776.9
618345
618403.7
621263
620773.7
618342.5
618401.3
598848.4
598409.1
601553.8
601747.3
598848.4
598409.1
601553.8
614596.7
617673.4
617377.3
614698.8
614601.8
617680.3
617384.3
659683.9
656603.9
657130.9
658402.7
659507.2
656615.3
657420.8
656870.3
660259.4
657301.4
660069.6
656913
660273.4
657327
604058.3
603727.7
604049.9
609325.3
608753.1
609324
608783.8
662838.9
662799.8
662669
660316.4
660320.9
660284.5
660286.1
654419.8
652254.2
652195.3
653812.9
654185.9
652057.6
652045.5
636602.3
636552.9
639296.5
639295.8
636589.5
636541.8
639284.9
615256.5
612509
614280.4
617020.7
615256
612508.5
614279.6
637167.7
639824.2
640052.7
637375.7
637233.5
639890.6
640100.9
628380.5
624844.4
623578.5
627269.6
628703.9
625163.1
623674.3
662288.2
662040.9
662230.3
660404.4
660324
660324
660230.2
663170.2
662467.7
662765.1
660676.3
660107.1
660500
659930.2
663620.9
663576.2
663448.2
661399.6
661355.2
661132.6
661059.2
663484.4
663213.9
663785.8
661554.2
661317.8
661532.4
661291.1
662547
662128.7
662239.3
660260.6
659962
660041.6
659777.8
663256.7
663171.9
663530.1
660872.4
661120.1
660934.7
661098.4
663354.9
663259.1
662869.1
661367.4
661209.5
661076.6
661052.7
662089.7
661802
661899.3
660051.6
660199.6
659824.8
660023
663758.5
664068.9
663932.1
661360.7
661563.1
661656.1
661771.8
662607.4
662493.7
662190.1
660955.8
660560.4
660310.5
660568.5
662909.7
663730.9
663062.3
661116.4
661604.6
660948.3
661817.3
621910.9
624674.5
625080.3
622267.8
621911
624674.6
625080.4
630060.8
626738.7
627181.4
629740.7
630054.9
626735.7
627176.9
618125.4
617376.8
616622
618978.5
618132.8
617384.3
616628.3
637226.9
634209.1
634445.4
637140.8
637227.8
634209.6
634446.1
615085
617156
618400.7
613673.9
615093.9
617165.5
618411.9
611442.8
607580.2
608318.5
609975.8
611442.1
607579.8
608318
641323.7
638706.8
638503.4
641595.4
641330.6
638712.9
638507.2
610593.8
610938.6
608490.8
613255.5
610593.5
610938.4
608490.6
619910.4
618270.1
621583
622913.3
619909.4
618269.5
621582.4
647710.4
647498.9
649932.9
650099.6
647832.6
647588
650068.4
681330.7
679577.7
681797.8
678980.8
681374.5
679623.6
681857.6
662702.2
662681.9
662594.1
660705.8
660531.8
660623.3
660081.5
662724.4
661835.2
662362.8
660150.1
660363.7
659773.1
660051.6
652988.5
653255.4
655698.8
655564.1
652992.8
653258.9
655703.7
673222.9
674617.3
674972
673022.3
673207.4
674619.7
674968.1
656713.1
655333.8
656212.7
657146.9
656818.7
655392.5
656313.1
668271.5
666680.8
668321.5
666694
668303.8
666729.9
668348.1
608279.1
604695.5
604939.8
608524.7
608278.3
604694.9
604939.2
611939.4
611723.3
615016.6
615157.7
611938.2
611722.2
615015.3
612982.3
613109.4
614851.8
615256.3
612987.4
613114.9
614858.5
602066.5
601800.7
602063
605752.5
606126.2
605751.1
606125.7
654720.9
652101.3
652348.7
654484.4
655017.4
652326.3
652581.7
604858.3
604653.4
600900.9
601279.1
604860.2
604655.6
600902.6
612942.8
612147.9
611492.5
614253.2
612946.7
612151.6
611495.8
621933.6
619411.9
621933.6
622754.8
620148.2
622754.8
620148.2
640867.4
638233.8
638343.5
641081
640861.2
638229.4
638343.4
632687.9
630749.6
628870.4
630880.4
632721.8
630776.9
628896.8
649516.7
648846.5
650934.8
651942.5
649564.9
648868.1
650964.8
607928
604876.5
604722.4
608104.6
607928.1
604876.5
604722.4
655541.2
654147.8
653256.7
655510.1
655757.1
654348.5
653400.5
623946.2
622781.1
620148.6
620757
623957.1
622792.1
620157.5
624264.9
623682.8
627032.7
627419
624260.8
623678.8
627026.4
645579.6
645845.9
644332.7
643629.5
645561
645781.6
644299
628887
626551.5
626297
628144.4
628901.6
626567.5
626311
662368.1
663021.3
662928.3
661781.3
661117.6
661790.8
661193.4
608102.4
609636.8
614031.8
609522.7
613871.2
614262.4
613282.2
666425.2
666467.8
664044.1
666471.3
664047.2
664204.6
664207.1
662717.4
660443.1
659946
661000.5
660418.1
659830.7
660939.5
651568.2
651884.8
653166
653441.8
651742.9
651814.7
652968.1
601298.8
597757.1
597700.3
601418.9
601298.8
597757.1
597700.4
649211.9
648472.2
647551.8
646818.4
649268.9
648538.1
647621.8
642740.9
642546.5
645351.7
645233.6
642716.8
642516.9
645320
627810.5
624554.7
624668.3
627655.5
627807.3
624551.1
624665.6
605309.1
606032.6
609342.8
608565.8
605309.1
606032.6
609342.8
625417.4
623610
625284.5
626980.4
625434.4
623622.5
625297.5
666196.6
666185.8
666205.8
663453.8
663480
663478.2
663495.6
662530.4
662136.9
662948.6
662885.6
662454.3
662178.6
662350.7
648541
646815.3
645070.4
647352.4
648618.3
646895.1
645117.7
669880.5
671442.2
671584.3
670049.5
669906
671453.8
671607.8
647340.7
647160.5
649475.9
649662.6
647249.1
647091
649412.1
609562
607766
607410.8
609996
609564.5
607767.9
607412.6
675426.2
677455.6
676593.2
675918.9
675464.3
677536.1
676648.8
604376.5
600326.3
600594.9
604489.1
604379
600328.1
600596.7
655045
652466.4
652635
655298.4
655240.4
652659.7
652807.4
654591.3
655980.6
654717.8
655948.1