/*--------------------------------*- C++ -*----------------------------------*\
| =========                 |                                                 |
| \\      /  F ield         | OpenFOAM: The Open Source CFD Toolbox           |
|  \\    /   O peration     | Version:  1912                                  |
|   \\  /    A nd           | Website:  www.openfoam.com                      |
|    \\/     M anipulation  |                                                 |
\*---------------------------------------------------------------------------*/
FoamFile
{
    version     2.0;
    format      ascii;
    class       volScalarField;
    location    "40000/fluid";
    object      p_rgh;
}
// * * * * * * * * * * * * * * * * * * * * * * * * * * * * * * * * * * * * * //

dimensions      [1 -1 -2 0 0 0 0];


internalField   nonuniform List<scalar> 
4960
(
754228.6
754378.9
736683.7
756051.4
748165.7
756919.6
754011.6
739713.2
724392.8
751389.2
754350
724866
754946.3
753464.5
751631.9
721985
732518.1
754097.3
754698.1
744809.5
740760
754080.8
755070.7
753800.3
735159
755654.4
746229.7
756799.1
739829.8
753584.3
747822.2
750106.1
730425.4
748817.9
749525.3
755170.6
758673.5
753364.6
752524
753959
754620.4
754327.6
754126.8
744887.8
749806.9
753121.5
755311.9
742327.2
755210.3
755358.4
751985.5
753494.2
722778.8
754456.5
754565.8
731498.3
754752.2
749758.9
755230.7
753781.2
755859.6
760250.4
754984.4
754918
729569.8
752801.4
748500.9
757897.4
724794.4
758442.2
755162.2
733469.5
747941.5
753097.1
752612.5
748343.8
760684
755081.1
753213.3
742597.2
754088.9
755892.7
753044
754854.1
738879.2
751697.8
753361.5
752700.7
753428.9
753276.3
749494.3
750712
755485.6
755463.1
749061.2
728737.4
752552.5
755013.3
737593.9
753553.3
748900.9
753191.8
757824.5
741979.6
749206
755572.4
754154.6
755479.4
754143
756166.2
750734
737418.4
738326
742939.6
739153
762415
750650.1
752706.7
746796.3
753441.5
754371.9
732195.2
759132.3
736136.5
753528
754633.4
752341.6
733836.6
760746.4
735258.2
762260.7
755435
755732.1
755345.6
735642.2
753274.1
739736.3
755297.9
752573.3
753683
753704.6
753722.8
725384.4
756118.3
737889.7
746156.3
732590.6
753620.8
755900.4
741135.6
741797.3
724789.1
746676
715668.3
754791.4
751874.8
729915.9
752876.6
743028.1
744002.2
725939.5
725244.3
744919.3
754755.8
747002.3
722004.2
753392.5
755005.5
730004.4
758627.6
751416.8
755126.6
735645.5
755199.9
739792.6
753685.8
755126.6
747186.1
755582.7
746338.7
755663.6
758942.5
744175.8
753261.1
746809
747127.8
738700.5
753016.5
755087.9
747733.4
755313.6
754106.1
754532.7
742752.6
754810.5
753794.2
755493.3
745998.6
755966.2
743152.1
744018.2
750012
757110
753212.8
753867.8
753764.9
753673.9
753634.7
753533.9
745054
741972
753239
745864.8
751269.9
753481.4
743215.6
754754.8
740267.1
748465.6
745328.9
754375.9
755881.3
754599.7
754225.7
726993.7
758261.8
756428
733049.1
753212.7
755071.1
725236.4
752493.9
727529.1
732314.3
745754.6
755883.7
755387.5
726883.5
755854
755594.4
746484.7
752140.8
754493.4
744827
755734.9
751165.2
725892
714453.1
745080.6
745342.3
747372.2
744039.1
753297.2
750727.5
751218.8
748284.8
754389.1
753758.8
753169.5
755168.3
755933.3
749008.6
732704.8
745057.9
749851.1
754119.5
755649.9
746209.4
755402.8
749171
724514.6
750688.4
753323.3
749365.4
749678.9
755660.1
754153.9
753422.3
754997.4
744196
742754.7
741347.3
731009.6
746251.4
753880.1
754516.5
753803.3
755557.5
754189
756074.2
753996.1
742313.3
745640
752775.1
704742.4
755728.2
743786.1
747756.1
743364.6
754392.2
747563.3
729712.9
749950.3
755007.9
755730.6
742841.4
745697.4
753719.4
754978.8
756382.4
742521.6
757949.8
709358.5
749735.3
747663
752999.5
754185.7
753446.3
723481.9
751252.9
750914.2
752375.4
751704.4
747733.4
752379.8
752078
750684.1
751726.2
749223.5
752593.8
755159.8
754081.1
753159.2
755442.4
754782.9
754219
754927.6
754331.9
754239.6
741840.7
749375.6
749468.2
748138.1
755816.2
723215.3
747079.4
725130.4
753980.5
753865.2
749311.5
722938.2
741300.5
757883.9
755007.3
755156.9
754324.6
753718.5
754933.9
754937
735086
754925.6
753547.3
751704.3
753731.7
729324.6
608278.4
755802.3
739953.9
751821.2
754875.2
739870.2
752073.8
753536.9
754905
754128.4
755811.7
748981.9
753026.2
723922.8
751990.6
755804.8
722977.7
756642.8
746681.9
731547.6
753574.8
753639
753944.4
753781.7
753964.6
753947.4
751568
746308
746999.9
743526.1
753974.6
754511.9
753317.8
752870.4
754997.3
752844.3
753707.8
754249.8
744413.6
751714.8
753268.7
755100.6
747865.8
732760.2
742188.9
756508.5
729000.6
754275.7
723171.3
755579.8
748661.7
742265.7
755820.7
754097.1
755094.3
754905.2
728083.7
742915
753939.2
754502.6
754057
752525.8
754463.7
745387
748411.7
753559.3
746134.9
755494.2
754108.1
756565.1
752715.8
747673.5
754739.1
754949.3
748716.9
740637.7
753878.3
752482.2
727250.7
747827.8
725670.9
754785.2
748709.8
718685.6
753814.2
756380.9
755118
755143.7
723491.4
753318.3
755042.8
725907.4
745193.6
755620
755742.4
751473.6
755313.4
728029.4
755047.2
749625.6
756928.2
753793.8
755844.4
742613.8
749707
748952.2
744631.8
754867.6
754841
751007.1
740226.7
751045.7
754579.7
755390.2
754933.3
737998.9
754227.9
754478.8
755052.5
754337.1
751420.2
743359.3
753680.9
724139.4
755002.5
748889.8
736265.1
744505.6
743626.2
753855.1
730950.5
750234.1
754929.6
738415.8
748462.1
754975.5
744571
726074.8
745503.6
745365.5
731712
702723.4
755773.7
742632.8
761074.1
730180.2
754955.1
739654.6
754279.6
749350.4
754621.3
744320.8
745072.3
731288.2
754546.5
753791.6
743830.3
745419.5
750144.2
699960.2
753125.6
755372.5
753085.3
753770.2
753883.4
752208.4
754100.2
754936.3
726789
730842.7
742979.9
755806.2
755804.9
717785.8
752224.1
753718.9
743084.3
725002.8
754443.7
744453
750577.4
745649.6
752957.8
754074.1
732471.6
753555
752493.8
753333.6
754973.2
755677.1
754309.7
752844.8
752971
717344.5
755804.4
755621
755728.2
750995.5
748170.7
758898.1
749480.2
755580.2
753988.7
753997.5
755223.8
754285.2
750520.4
750828.9
756312.8
746002.8
755931.3
744569.4
728609.6
754110.1
749156.9
749563
753652.5
754241
755694.3
730856.6
755756.8
755744.8
732550.7
754765.3
753888.2
754184.7
752396.1
750992.2
755059.4
742753.7
726168.1
751311.7
751532
748604.3
755380.3
754955.6
754206.1
741598.2
750569.5
754933
736197.9
754158.6
751576
755212.2
749140.5
742076.2
748736.4
749384.2
755927.9
751822.4
744582.9
738859.6
754365.6
754948.2
756073.1
754190.2
754228.6
754190.1
754228.9
754181
754228.9
754180.9
754930.4
754922.3
754231.4
754391.5
754944.8
754930.6
754244.3
740536.5
737915.8
739719.9
736683.9
740538.3
737916.4
739722.1
756398.3
756052.7
756399.5
756296.7
755975.9
756298.1
755977.4
745364
745458.2
748181.5
748174.3
736963.7
742359.8
737952.4
756627.8
757065.4
756842.3
756929.6
756643.7
757373.6
756881.3
753961.8
753880.6
753919.8
754017.9
753965.1
753885.8
753928.7
739813.6
741589.1
744102.4
752370.6
740092.9
751777.9
740730.5
729334.4
727872.8
726058.8
724402.1
729362.9
727900.3
726068.2
753753
753077.5
752139.9
751386.6
753752.5
753076.9
752138.3
754554.9
754294.4
754594.2
754356
754555.3
754326.6
754607.7
724617.4
724837.3
724388.4
726172.3
725296.5
725468.4
725253.3
754947.5
754938.3
755048.5
754827.7
754940.2
755049.7
754829.3
753513
751400.8
753203.4
753501.1
753550.7
752750.9
753385.7
751593
750581.7
753496.9
752327.8
754442.1
750881.3
753950.8
726326.9
717986.4
726145.9
709944.9
716821
710650.7
723131.5
729838.8
732834.3
729559.4
732676.5
729734.1
732880.5
729745.4
754119.9
754086
754066.9
754097.1
754119.7
754085.6
754066.5
754677.8
754639
754735.6
754698.1
754677.8
754639
754735.6
746995.9
745121.1
744533.8
745184.1
744869
745536.3
744643.8
744866.9
746687.6
739008.6
739649.9
747537.3
748442
738636.5
754089.9
753998
754014.4
754079.9
754089.3
753996.6
754013.6
755037.4
755042.9
755066.1
755070.7
755037.4
755042.9
755066.1
753913.7
753874.8
753835.6
753801.9
753915.3
753875
753838
737738.8
735178.4
737653.1
735241.4
733312.6
735480.8
727527.7
755703.3
755507.3
755588.9
755659.1
755707.9
755510.3
755592.1
752573.9
751817.2
752363.3
743171.8
751335.8
752330.4
740291.9
757277.8
756800.3
757278.9
756673.6
757129.1
756675.1
757130.4
739722.2
741454.7
739643
728667.6
726674.2
728765.6
727395
753375.5
753408
753517
752115.3
752168.3
749892.4
752932.7
743864
750559.1
745813.9
742538.9
744914.3
742466.9
749952.5
751848.7
751139.9
751258.9
749469.5
750002.4
751324.4
749844.6
731256.2
731368.4
731612.6
730277.2
729726.1
738907.3
733435.8
746063.5
746055.5
750184.5
748061.1
749939.9
749064.3
750066.3
753183.1
753416.4
748157.1
752044.1
753590.8
753471
752700.4
755212.1
755208.7
755169.2
755170.7
755212.2
755208.7
755169.2
758731.1
757648.1
757751
758675.9
758733.4
757651.6
757754.5
752797.4
753307.7
753065.7
753113.3
753280.9
753176.7
752358.9
751512.5
753096.9
752525.1
753382.6
751623.6
753275.4
752846.5
754073.4
753964.9
754065.8
753983.6
754082.2
753977.4
754079.8
755124
754785.3
754887.2
754634.8
755132.2
754797.5
754905.3
754283.3
754525.9
754433.8
754331.7
754325.6
754533.4
754450
754075
754104.3
754095.4
754126.6
754074.6
754104.1
754095.1
751954.1
746702.7
744142.2
745374.2
752360.3
744876.3
744396
753226.3
750165.3
748297.4
748140.5
754639.2
748630.6
748772.2
750896.6
752925.7
752844.8
752442.1
750852.8
752896.2
752807.4
755240.6
755306.5
755251
755312.3
755240.9
755307
755251.3
749335.1
744159.1
741146.2
737963.8
737572.7
737691.3
744783.3
755293.8
755226.3
755298.9
755210.9
755294.6
755226.7
755299.5
756979.9
753832
756593.9
754231.6
757122.8
753482.4
756061.6
752078
751816.1
752283
751989.1
751331.9
751838.4
752318.6
751521
753519.5
751305.1
753500.5
751527.6
753523.5
751309.6
724885.2
726437.6
721039.4
722795.6
724918.4
726461.9
721115.3
754880.7
754792.1
754449.6
754471.4
754888.5
754776.1
754411.8
754629.8
754583.6
754525.2
754565.8
754629.9
754583.6
754525.2
728387.8
729804
732773.1
731542.5
728421.3
729833.9
732480.7
754636.2
754670.3
754721.5
754752.3
754636.2
754670.3
754721.6
748823.3
746676.7
747604.3
749759.8
748825.4
746677.8
747604.3
755271.4
755230.8
755271.4
755286.4
755242.7
755286.4
755242.8
754165.1
751960.6
751397.8
753783.9
754166.9
751962.1
751400.5
756286.2
755394.9
757316.6
755689.9
756275.4
755220.8
757140.6
759664.1
758965.2
759383.6
760251.1
759664.9
758966.5
759384.9
754957.2
755000.1
754975
754984.4
754957.2
755000.1
754975
754892.1
754918
754892.1
754899.5
754920.8
754899.5
754920.8
728276.1
729793.2
728514.6
730786.4
729619.1
729077
728387
749553.2
752344.5
752594.9
749545.1
751397
744844.5
751048.7
747952.7
752661
753738.6
747667.6
747376.2
747453.3
749941.1
757509
756971.8
757259.8
757899.7
757511.5
756975.2
757263.3
722980.4
723534.9
723628.2
724735.3
723206
723671.3
724187.2
759045.7
758480.3
757992.7
758443.4
759046.7
758481.7
757994.4
755189.9
755288.5
755288
755163.1
755190.6
755289.6
755289.4
733389.8
731184.4
734731.6
733469.5
733393.3
731184.8
734735.2
746242.6
745576.5
744341.8
747945.2
746246.9
745578.6
744344.7
753640.1
753051.6
752346.7
753070.2
752317.7
751409.6
753660.7
751928.9
752123.9
752442.7
752637
752289.5
752142.5
752475.3
751219.5
744456.9
750971.2
752408.9
746913.7
749368.1
743991.3
761494.7
760684.4
761494.9
760990.2
760259.6
760990.5
760260.1
755041.1
755102.6
755063
755081.2
755041.2
755102.7
755063.1
753302.4
753293.8
753174.9
753178.9
753283.2
753286.5
753159.8
737688.7
749463.5
738748.7
745104.5
738431.5
741917.1
742085
754063.5
754060.6
754091.5
754088.7
754063.2
754060.2
754091.3
755665.9
755757.5
755975.2
755909.6
755676.5
755765.6
755987.6
753222.6
753069
750302.1
753174.4
753179.6
752986.2
752891.3
754808.4
754854.1
754808.4
754826.7
754866.8
754826.7
754866.8
740143.3
737846.7
736685.6
738893.1
739907.7
737797.1
736404.5
752814.1
751031.7
750410.7
751705.8
752821.7
751039.8
750419.9
750206.5
753234.6
753337.8
753413.5
750347.1
753274.7
753297.2
753043.9
753157.1
750956.8
753352.4
753540.4
752512.1
752859.7
753352.3
753397.7
753477.3
753497.4
753414
752273.6
753546.5
752783.3
753592.5
752243.9
753600.9
752539.7
753641.3
752184.5
749677.3
747851.6
748908.3
750574.9
749153.1
749577.6
746421.1
752293.9
751652.3
751498.3
750767.6
751537.4
751590.1
748502.7
755327.5
755573.8
755414.3
755492.2
755331.5
755578.8
755417.5
755512.9
755442.6
755490.4
755463.4
755513.4
755442.9
755490.7
748858.5
746602.6
746961.9
749069.7
748869.1
746613.4
746970.1
725856.1
728143.5
726366.8
728399
726441
726829.2
726167.1
752847.6
747876.3
751978.5
752978.7
753238.4
747320.6
751499.3
755044.7
755027.5
755057.1
755013.4
755044.7
755027.5
755057.1
736720.2
734297.3
735440.8
737885.9
735504.9
734044.4
735170
753478.3
753429.8
753248.6
753538.3
753470
753411.3
753229.4
747960.7
747102
748073
748400.8
747982.5
747131.4
747999.6
752913.1
753002.7
752733.8
753213.9
752938.8
752447.2
752754.2
758449.9
757825.5
758450.8
758201.2
757636.7
758202.2
757637.9
740070.5
740614.9
738322.2
742032
740121.3
741030
737825.7
750156
749185.5
747995.8
749228.3
750180.1
749188.2
748003.4
755502.4
755484.4
755539.8
755573.4
755503.1
755484.9
755540.5
754129.3
754154.5
754129.2
754118
754142.3
754117.9
754142.2
755740.3
755480.7
755741.7
755451.4
755693.9
755453
755695.4
754177.1
754142.8
754177
754154.1
754127.4
754154
754127.3
755925.4
755603
755458.4
756171.2
755931.4
755611.8
755464.9
749725.4
749734.6
748822.9
750655.3
749417.4
749759.4
748765.9
736348.6
734996.1
733711.8
737423.1
736353.7
734996.2
733720.9
736323.1
737987.5
735776.9
738571.5
736339.4
738150.1
735862.7
743921
741063.3
742101.2
742969.9
743952.3
741151
742195.6
737018.7
737373.1
736742.4
740059
735554.2
739217.3
735200.7
762415.8
760158.7
761648
760383.7
760159.8
761649
760384.4
751633.9
751157.8
750317.8
751075.4
751576.9
751008.7
750338.4
751909.4
752304.9
753136.7
752734.3
752042.2
752584.7
753225.3
745889.4
744512.6
745440.9
746860.5
745966.4
744568.5
745494.9
753487.6
753358.3
753250.9
753424.5
753473
753340.6
753253.2
754447.5
754510.7
754438.1
754371.6
754447.3
754510.7
754437.8
730733.3
729338.9
727661.5
732206.4
730753.5
729349.1
727680.8
759887.3
759133
759887.8
758827
759522.6
758827.8
759523.2
732512.4
741133
745910.8
744835.1
744846.6
745723.6
745779.3
752731.7
744523.3
753258.2
749549.8
750855.2
745858.9
753156.9
754567.2
754633.4
754567.2
754664.4
754601.7
754664.4
754601.7
752280.3
741592.3
752217.3
752238.1
752206.1
744528.2
752008.1
729533.5
730285.7
733265.3
730624.2
722309.5
725338.4
733241
759697.9
759698.8
760826.6
760747.1
759699.4
759700.1
760827.5
732485
731134.9
734033.5
735283.4
732499.4
731166.1
734070.9
762919.8
762260.9
762920.4
761693.2
762014.2
761693.5
762014.7
755372.6
755424.9
755366.7
755435.5
755372.9
755425.2
755367
755674.9
755687.5
755725.4
755735.1
755676.9
755689.5
755728.1
755410.6
755357.3
755393.9
755345.7
755410.9
755357.5
755394.1
734715.7
733062.2
732055.2
733586
729716.5
733108.2
732174.5
753608.8
753448
753260.2
752132.3
753112.2
753392.5
751041.6
740579
739984.5
741703.9
740499.6
738035.6
737448.7
727928.3
755306.3
755257.3
755251.6
755298
755306.4
755257.4
755251.6
752488.2
751324.9
752252
752835.4
752885.8
752415.7
751962.9
753797.3
753702.6
753626
753624.3
753841.4
753742.7
753680.8
753778.3
753458.7
753665.6
753757.1
753824.5
753778.9
753709.3
753767
753698.6
753637.6
753718.9
753762.9
753693.7
753632.2
725437.6
725153.8
724964.3
725279
725537.9
725000.2
724322.4
756201.2
756214.8
755997.5
755957.2
756275.2
756024.9
755990.9
747710.4
732031
743665.9
748747
737244.2
732947.2
733819.5
746998
746024.1
747085.1
746158.8
746987.7
746042.1
747063.9
730819.3
734790.3
730068.4
736623.7
738185.4
735579.6
733389
753590
753510.3
753555.2
753661.7
753367.2
753557.6
753618.6
755906.5
755872
755891
755921.5
755919.8
755883.7
755908.9
742121.1
739886.4
738881.6
741014.7
742137.8
739896.8
738889.5
739990.5
742515
743394.8
741876.4
741074.8
742896.4
743462
724619
724289.2
724416.8
724808.7
724138.2
724081.9
724574.3
746967.5
746925
746742.6
746495.4
746829.3
746791.8
746535.4
717088.9
714970.2
720675
716206.4
719492.2
714953.7
720752.9
754726.6
754780.6
754831
754791.4
754726.6
754780.7
754831.1
751673.9
751638.7
751420.7
743794.8
743666.5
745267.7
743402.6
729284.1
730902
729944.6
728977.8
729043.2
728460.4
728472
752972.2
753002.8
752687.8
752963.1
753090.3
753082
752812.2
743184.4
743990.6
743740.2
743995.3
744516.5
744007.9
744497.6
744056.6
743920.7
743974
744664.2
744638.3
744660.2
744679.7
726104.7
725303.4
725420.1
725361.6
725622.1
727280.5
725508
725574.4
725038.4
724983
729065.4
726189.5
726109.6
726032.6
746231
746717.4
745901.7
744926.3
746191.8
746712
745931.5
754697
754755.8
754697
754724.6
754778.4
754724.6
754778.4
747180.6
747552.5
747335.4
746931.9
747213
747563.7
747295.6
726360.1
722381.4
726468.4
721649.8
726053.1
718002.2
714258.2
753616.2
753116.4
753181.2
753413.4
753636.3
753139.1
753375.7
754970.7
754994.4
755027.3
755005.5
754970.7
754994.4
755027.4
733071.9
728735.5
731010.1
732727.3
729633.4
731739.1
725289
759434
759439.6
760508.7
758629.8
759435.7
759441.5
760510
751190.6
751190
750934.1
751379.4
748050.3
751029.1
750771.4
755146.4
755179.8
755195.1
755126.7
755146.5
755180
755195.2
737885.2
734340.3
736506.9
735309.4
737668.1
735254.7
734934.6
755071.5
755130.8
755277.8
755202.4
755073.1
755132
755279.9
741451.8
738333.1
739340
741461.7
739690.4
729174.4
727176.4
753747.7
753580
753614.7
753674.4
753737.5
753564.3
753601.3
755051.3
755096.3
755155.9
755126.9
755051.5
755096.5
755156.2
747015.3
747052.7
747237.9
747135.7
746933.9
746975.7
747191.1
755624.4
755583.2
755625
755602.1
755641.8
755602.7
755642.6
747434.9
747276.5
746483.4
746294.2
747388.5
747235
746376.5
755699.3
755664.4
755700.3
755713.4
755679.4
755714.7
755680.4
756076
759338.3
758006.6
754596.3
758267.3
759037
758088.7
744191.4
744090.4
744109.9
744761.6
744543.7
744684.5
744373.4
753152.9
753234
753325.1
753344.2
749196.4
743197.1
745139.7
746923.5
746249.3
746637.7
746434.7
746877.2
746002.8
746457.8
746767.2
747046.3
748078.6
747190.1
746673.9
747131.1
747900
739684.4
726927.4
735422.5
729814.5
728182.7
730506.2
730878.1
749498.5
752553
752833.9
752967.6
751665.4
752495.4
752812
755043.2
754791.7
754801.6
755096.2
755049.6
754800.4
754809.9
746589.3
747071.4
750235.1
747753
746531.8
746979.7
750139.4
755357.7
755313.7
755357.8
755330.8
755376.4
755330.9
755376.6
754161.4
754043
754101.2
754109.2
754162.9
754044.6
754101.9
754578.3
754403.2
754433.5
754540.6
754584
754412
754439.7
742765.5
741244.4
741259.2
745075.9
744055.9
744987.1
743993.5
754816.5
754666.1
754702.2
754817.1
754822.5
754673
754708.3
753713.9
753859.3
753736.9
753790
753708.1
753855.7
753730.8
755745
755373.7
755502.1
755499.8
755748.7
755378.2
755506.1
747587.9
746267.6
747668.2
745845.8
747555.8
746108.7
747558.7
756316.8
755635.6
755982
755970.6
756320.2
755641.6
755985.6
736166.5
740331.8
738710.7
731274.5
731820.5
730754.3
732463.8
743630.3
743916.5
743522.8
743561
744056.4
743486.8
743876.4
749956
745732.3
752848.8
747853.5
745501.5
752641
746915.3
756659.4
756337.7
756713.6
757112.8
756663.2
756341.8
756716.7
752882.7
753520.8
753574.1
753875.6
753663.7
753882.8
753717.1
753756.9
753798.2
753734.4
753919.8
753788
753893.4
753421.1
753832.3
753703.4
753824
753195.3
753868.2
753569.4
753853.7
753389.7
753754.7
753654.1
753720
753428.1
753789.1
753746.9
753551.2
753641.9
753595.8
753653.5
753576.4
753651.5
753628.1
753463.5
753594.8
753407.6
753540
753386.6
753608.5
753532.3
743603.5
742700.3
744196.8
745106
743675.6
742753.7
744251.9
748435.9
742570.7
744097.7
742225.1
742513.6
746035.6
745393.9
753263.7
753200.6
753138.9
753270.3
753340.9
753196.3
753284.8
748034.3
744662.4
746296.7
748666.6
744060.6
747890.4
744174.5
752215.7
751709.7
750686.3
751284.1
752226.4
751719
750696.7
753334.2
753519.4
753429.9
753484.4
753388.6
753513.6
753420.4
742159.4
737634.2
744636.8
745052.9
742786.9
740666.2
752015
754835.4
754789.9
754804.9
754754.8
754835.4
754789.9
754804.9
742675.7
736891.6
731515.9
729464.6
730125.1
734692.7
737796.3
747592.7
746287.5
747162.1
748480.8
747654.9
746315
747179.2
744592
743793.5
743237.2
747535.1
747404.3
747142.6
747326.1
754481.6
754376
754482
754429.5
754328.2
754430
754328.5
755843.3
755799.3
755817.5
755890.3
755850.9
755804.3
755823.3
754556.4
754691
754670.5
754599.8
754556.4
754691.2
754670.8
754057.2
753864.8
753619.9
754224.5
754049.1
753857.6
753614.7
728237
728763.7
729640.6
728229.6
727257.6
728492.3
728357.8
757510.3
758546.9
757680.3
758264.1
757513.7
758549
757683.7
755560.8
754768.9
757465.9
756428.2
755561
754768.9
757466.3
738313.5
741024.2
735556.6
733071.6
736416.5
742419.1
745806.9
753235.8
752903.2
753144.1
753204
753228
753085.2
753143
752256.9
755671.2
755770.3
754602.9
753010.1
755688
755818
724979.3
726159
726060.3
725586.4
724308.5
727445.5
725582.1
750440.3
748261.7
751536.8
752533.1
750159.2
749608.2
752298.2
725320.8
727527.1
725318.3
731526.6
728904.7
731525.6
728903.2
731694.8
733010.9
731604.2
729680.2
736435.7
733040.6
734734
733331.9
740972.2
746033.8
745339.3
745044.9
746248.1
745960.7
755889.1
755941.8
755975.7
755905.5
755912.8
755976.4
755981.3
755460.7
755282.9
755605.3
755389.4
755463.2
755285.4
755607.1
726269.2
726564.6
726491.4
726564.8
730289.6
727296.7
727006.1
756163.1
756496.4
756393.1
755698.3
756152.5
756550.4
756416.5
755590.2
755515.5
755514.4
755595.9
755592
755516.5
755515.6
747448.7
746356.2
747311.8
747450.5
746520.7
747252.8
746399.2
755732.2
755085.1
750833.7
754944.9
755805.8
751831.2
751168.5
754493.4
754432.2
754535.7
754478.4
754432.2
754535.7
754478.3
743097
744067.8
745765
744850.8
743106.9
744072.3
745784.1
755738.1
755663
755661.4
755738.2
755741.9
755665.2
755663.9
748400
750794.2
752969.8
750444.9
750786.9
751312.2
753040.1
725997.8
725512.1
725660.9
727065.9
726525
726182
726245.4
712331.9
714373
712016.1
718720.2
716662.9
718714
716855.5
748196.6
746797.4
746083.2
745096.8
748206.2
746800.1
746095.7
738771.6
739343.5
740558.8
739835.3
750107.3
740338.4
743996.1
747266.8
746505.7
746600.7
747286
747379.7
746485.8
746571.3
745395.6
744725.3
745872
737403.4
732394.3
744189.6
735142
753125.4
753836.9
753549.3
752954.3
753058.5
753846.3
753567
748775.8
750831.5
750094.7
750775.3
749820.3
748518.5
750072.4
750297.1
751497.5
750944.1
751244.1
750319.2
751515.3
750962.2
748973.2
748078.1
749033.3
748233.9
748948.2
748029.3
740806.1
754279.6
754300.6
754360.5
754390
754280.6
754301.1
754362.2
753907.9
753721.9
753575.1
753742.5
753899.7
753710.3
753560.3
752673.1
752567
753140.9
753220
753003.5
752771.5
753124.4
755353.7
755046.9
755203.8
755179.2
755362.5
755053.1
755209
755838.5
755850.3
755984.8
755944
755845.1
755856.9
755994
748581.3
746975.9
748553
749075.1
748802.3
748408.5
749449.9
727416.2
727306.4
726885.3
730792.8
728057.6
728393
730853.8
744707.9
746580.2
746079.4
739504.6
740569.6
738899.8
740008.5
750191.7
748542.8
750824.5
749842.9
750188.8
748531.1
750821.4
754123.7
754119.4
754123.6
754108.6
754111.5
754108.5
754111.3
755394.8
755290
755117
755656.2
755407.3
755300.3
755131.4
739540.3
742992.6
744586.5
745931.5
746747.9
747267.8
746777.2
755448.7
755402.9
755448.9
755422.8
755469.3
755423
755469.6
741978.9
751481.6
752845.4
752695.4
746448
752156
751481.6
724952.7
723858.3
726457.5
724439.8
725273.4
723949.7
727030
752459.4
752663.3
752860.9
751020.1
752587.3
752204.7
752859.8
753438.9
753442.2
753355.8
753320.7
753425.5
753450.8
753324.4
749955.5
753628.3
753075.3
749267.6
749941.7
753531.4
753163.1
745117.1
743561.4
740350.3
738908.6
749006.5
738728.4
738220.5
756288.8
755992.2
755612.3
755568.6
756381.5
756033.1
755660.3
754204.9
754157.8
754113.4
754153.6
754204.7
754157.6
754113.1
753320.4
752615.6
753271.5
753397.7
753300.2
752646.8
753184.3
754995.1
754619.7
754469.3
755026.3
755013.5
754631.5
754493.9
749517.8
747426.4
744213.2
747247.8
743897.8
743881.2
746256.1
742469
742592.7
742087.7
747570.9
747774
747183.3
747363.2
749333.4
744741.9
740937.3
741674.6
745818.3
744257.2
745746.3
729688.4
731280.8
730050.2
730566.4
732644.9
729321
727967.5
747274.5
745461.5
746502.7
746298.9
746923.8
745578.9
743864.7
753651.3
753891.5
754139.5
753904.7
753671.5
753911
754158.3
754574.3
754567.6
754626.6
754516.4
754574.3
754567.6
754626.7
753753.4
753834.7
753873
753837.7
753795.7
753870.2
753903.7
757250.3
755160.9
756776
755509.7
757265.2
754157.8
756403.2
754222.9
754400.4
754393.5
754185.5
754220.2
754399.7
754393
755981.2
756209.6
756086.8
756065.6
755996.7
756226
756099.4
753819.1
754050.9
753884.5
753989.5
753809.5
754045.8
753877.1
745877.8
753192.4
753671.1
747750.9
745943.1
754796.2
755804
746884.9
746571.2
747838.4
740688.3
742747.4
742476.5
742551.4
752449.8
753446.3
753375.9
752712.6
752360.6
753503.6
753334
703281.9
704836.6
701763.9
709746.5
709238
710862
709764.6
755447.8
755299
755519.8
755751.5
755478.1
755317.6
755534.3
744106.9
745568.8
745309.7
740682.3
742318
743506
736759.7
748480.8
747874.8
748229.3
747912.8
748614.5
747946.2
748285.6
743825.4
743321.9
743806.2
748764.6
748470.3
748779.5
748288.2
754379.9
754348.9
754428.4
754392.1
754379.8
754348.8
754428.3
748318.6
748823.9
749876.8
744542.7
743437.5
744743.6
744923.2
729959.4
728640.9
728522.5
730204.5
733844.1
729817.7
730040.1
743739.8
746545.7
739436.7
752951.8
747273.1
752614.5
745721.1
755051.4
754986.2
755015.5
755008
755051.5
754986.3
755015.6
755755.9
755731.9
755757.5
755743.2
755767.7
755744.8
755769.7
752260.8
753000.7
753102.5
748470.1
753027
753155.7
753272.1
746842.7
747723.5
747884.7
739795.5
748872.5
747376.9
743282.3
753736.7
753797.8
753791.4
753716.4
753733.5
753795.4
753789
754963.5
754951.8
754968.3
754978.8
754963.5
754951.8
754968.3
756577.6
755726.1
755829.4
756386.9
756582.7
755729.8
755836.4
753209.5
752417.6
742953.4
739718.8
747178.1
752690.8
745000.8
757114.8
757702.7
757089.3
757992
757157.5
757591.4
757099.7
706382.9
709859.7
707961
713155.7
715011.2
713154.4
715042
749244.1
749136.2
749170.4
744798.6
743887.1
747929.3
746695.8
741616.7
743925.2
743221.4
752345.2
742459.8
747777.5
740420.1
753171.3
753011.7
752616.4
753015.1
753120.5
753088.2
752648.8
754262.3
754237.1
754169.9
754184.8
754261.7
754236.6
754169.1
753318.8
753437.4
753503.5
753408.3
753337.5
752962.4
753551.7
723437.4
716500.2
723762.4
727847.9
714934.8
722191
724691.4
747179.8
751298.6
749450.8
746097.5
751272.7
751641.9
748650.7
752376.6
751351.7
750024.4
746603.7
752335.8
747515.2
744110
752455.4
752943.4
752310.5
746808.3
750634.9
744645.4
752572.1
751699.4
750784
752001
751326.4
748206.6
753102.9
750666.3
749414.4
751227.2
750321.2
746291.6
746510.7
746521.4
751607.2
752376.9
751467.5
752915.5
747366.9
752679.5
746558
748911.1
751751.3
752615.8
752219
748573.1
747216.7
749876.9
747893.2
751290.4
750932.4
751143
747350.8
748064.5
746917.3
744393
752064.1
752298.3
752573.2
750944.3
747546
751239.4
743540.8
749280.3
750283.3
751334.6
746761.3
744408.5
744300.6
744510.5
751680.6
753079.5
752260
745060.5
746117.4
745512.8
745920.5
755167.6
755211.1
755205.6
755159.9
755167.7
755211.2
755205.8
753927.6
754096
753962.1
754077.1
753921.7
754093
753957.6
752478.2
754247.8
753615.9
753167.1
752485.6
754255
753622.2
755442.8
755375.8
755374.1
755443.1
755443.7
755376.2
755374.7
754621
754697.6
754542.3
754790.4
754629.4
754707
754551.1
754156.1
754213.7
754159.7
754218.6
754155.4
754213.3
754159.2
754635.6
754851.4
754617.7
754938.7
754642.5
754857.5
754621.4
754301.3
754397.9
754359.2
754331.6
754301
754397.7
754359
754210
754301
754366.2
754238.4
754209
754300.4
754365.6
744126.7
746771.4
750766.1
743282.7
751223.1
746346.9
752840.5
748822.7
749510.8
752313.1
749864.2
749241.2
751772
751786.7
748769.2
749080.7
748894.3
746368.8
747219.7
747100.6
746744.5
748805.2
747844.9
748940.3
742871.4
748976.4
740581.7
742412.5
755778.8
755761.9
755795.7
755822.4
755783.1
755765.4
755800.6
723986.7
722872.9
723601.8
723500
724391.3
723145.4
724084.8
752762.7
742986.6
750002.8
750944.1
752868.3
742382.4
743203.4
724657
725451.6
724975.3
725677.9
725150.1
726226.3
725567.3
753986
754029.4
754025.3
753979.6
753985.3
754028.9
754024.7
753925.9
753934
753873.8
753863.6
753924.7
753932.9
753872.4
749122.1
747050.3
747165.8
749318
749127.2
747055.8
747172.5
720780.2
722935.4
720775.4
726332.8
724364.8
726331.6
724364.3
740809.1
741929.1
744513
745082.6
741690.9
742146.5
747171.8
757509.7
757050.7
757373.1
757885.2
757511.6
757052.9
757374.7
756155
755382.5
756830.6
755012.2
756158.9
755386.2
756833.9
755192.5
755156.9
755192.6
755202.4
755164.8
755202.4
755164.8
754011.5
754126.2
754370.2
754322.1
754001.6
754121.8
754370.2
753537.7
753892
753941
753821.8
753646.9
753755.6
753958.8
755041.1
753833.2
754008.4
755031.7
755089.2
753811.4
754038.4
754963.1
754904.6
754933.8
754937.1
754963.1
754904.6
754933.8
734016.2
745130.6
740185.7
735895.7
734588.6
737715.1
736266.3
754033.1
754120.1
754991.9
754932.3
754067.4
754105.9
754995.8
753642
753668
753573.1
753540.4
753638.4
753663.9
753567.3
751598.8
751373.5
751024.7
751697.6
751548.4
751290.2
751356.3
753239.1
753978.5
753922.6
753851.2
753410.7
753897.8
753994.8
728821.5
727655.5
727700.9
726814.4
729274.7
727937.7
728350.2
608408.5
609952.1
676874.4
609837.9
701233.6
697093.3
705137.5
755803.6
755799.8
755799.3
755802.1
755802.2
755798.4
755800.7
740872.1
743824.3
751046.1
730960.3
746647.3
743504.7
747711.5
751045.8
752515.5
751408.9
750739.1
752296.1
752445.4
751211
754907.1
754848.6
754884.9
754875.2
754907.1
754848.6
754884.9
745497
746653
747408.8
746927.5
747457
746719
747468.6
753244.4
753196.3
752893.5
751741
753220.2
753166.7
752841.7
753550.1
753632.6
753642.1
753535
753547.7
753629.2
753639.4
754869.2
754828.7
754871
754905
754869.2
754828.7
754871
754373.3
754510.4
754269.1
754143.9
754390.4
754604.9
754351
755850.3
755818.7
755838.7
755887.6
755848.5
755911.2
755863.7
732710.8
730144.8
730932.7
737818.1
736810.7
734206.3
730536.2
753080.3
748337.9
753272.5
753160.2
750965.8
747756.6
750691.5
724011.6
723567.1
723638.4
723918.9
724219.8
723754.1
723708.4
751828.6
752455.8
752120
752308
752424.5
752386.3
752056.3
757404.3
756176.8
757987.4
755807.6
757406.8
756178.6
757989.2
723292.4
723652.3
723754.1
723190.4
723197.9
723551.2
723871.7
756275.8
756497.3
756916.3
756645.2
756278.2
756499.2
756918.1
750705.2
752367.3
745862.7
751594.2
745702.1