/*--------------------------------*- C++ -*----------------------------------*\
| =========                 |                                                 |
| \\      /  F ield         | OpenFOAM: The Open Source CFD Toolbox           |
|  \\    /   O peration     | Version:  1912                                  |
|   \\  /    A nd           | Website:  www.openfoam.com                      |
|    \\/     M anipulation  |                                                 |
\*---------------------------------------------------------------------------*/
FoamFile
{
    version     2.0;
    format      ascii;
    class       surfaceScalarField;
    location    "40000/fluid";
    object      phi;
}
// * * * * * * * * * * * * * * * * * * * * * * * * * * * * * * * * * * * * * //

dimensions      [0 3 -1 0 0 0 0];
oriented        oriented;


internalField   nonuniform List<scalar> 
12152
(
1.000271
3.782321e-06
0.00905522
-1.00933
-0.6526261
-0.1909486
0.7637707
-0.0004097188
0.08021363
0.3953656
-0.4773017
-0.7208219
6.052049e-06
0.802752
0.7867373
-0.0001303779
0.008676248
-0.7952832
0.5626695
0.0143026
-0.6370265
0.0004219163
0.05963253
-0.1136343
0.4004158
-0.0002662975
-0.3876893
0.1011738
-0.05758995
-0.8616786
-0.05361721
-0.0003671766
0.9732529
0.3678333
-0.3447223
0.4275793
2.806022e-05
-0.4506713
0.6542384
-0.8732875
-0.6885022
-2.870666e-05
0.9075814
0.2057298
-0.177667
0.1786029
1.060018e-05
-0.2066764
-0.862078
0.8205828
0.1753075
-0.0005584779
-0.1332538
-0.1884872
0.1782469
-0.003720205
-0.001186607
0.01527009
0.6825039
-4.831503e-05
0.6605305
-0.4081463
-0.9348398
0.7453235
0.09423313
-0.0012553
-0.8096624
-0.02863889
-0.2448938
0.2388308
0.02438555
0.001063594
-0.01940352
1.116885
-0.2096615
-1.04339
-0.000598717
0.1371721
-0.8885302
-0.1519699
0.9393576
-6.040312e-05
0.1012023
0.8434337
-0.8555225
0.06696837
1.429305e-05
-0.0548939
-0.8305069
0.9163431
-0.3102621
-5.966146e-07
0.2244265
0.4685583
0.038609
-0.4716761
-0.0002175195
-0.03527158
0.5050433
-0.06905812
9.406098e-05
0.09140542
-0.5274568
0.5781006
0.6953322
3.069795e-05
-0.7269825
-0.5464809
-0.07574427
0.06654571
0.5552802
-1.535229e-07
-0.5460814
-0.782207
-0.05323865
0.8168075
-4.592829e-05
0.01868411
-0.1401067
-0.8419168
-0.0001734152
0.09366803
0.1864055
-0.6271926
-0.2576612
-8.649302e-05
0.6985347
0.4688284
0.4864281
-0.0003752547
-0.5870265
-0.7832892
0.7400469
-0.0001324173
0.04337477
-0.7297258
-0.1149398
0.7689401
0.0007173249
0.07501396
0.2503419
-0.3266387
0.6963632
-0.001254932
-0.6188114
0.2825363
-0.3507831
0.04573996
0.004148581
0.01835965
0.1703882
-0.1118574
0.0005988433
-0.08115454
0.02200879
-0.1055104
-0.6923018
0.000987281
0.06715381
-0.4248592
0.5463225
-0.0004342317
0.3575541
-0.4785576
0.5400887
-0.606592
-0.2556704
-0.001073661
0.3232514
-0.1353928
-0.5396804
-6.041115e-07
0.5514072
0.1236666
-0.4466207
0.2931718
-6.834821e-05
-0.2634935
0.4170107
0.7624614
-0.09082668
-0.00083656
0.01581196
-0.6866095
0.3161652
0.8912737
-0.3369386
-0.001145664
-0.8693495
-0.8604538
0.5426027
-0.0006349856
-0.283696
0.6021822
-0.7357518
0.5391538
-0.0004285777
0.5267206
-0.329694
-0.7513205
-0.1199903
-0.0004089346
0.009641732
0.791594
-0.7941837
0.01186873
9.584622e-06
-0.009288636
0.01840097
0.6625359
-0.07669334
0.0006275651
-0.6048578
0.1258125
-0.1793623
0.04349555
0.001514714
0.008523959
0.6576634
-0.2554515
0.0006484326
0.3075266
-0.7103832
-0.5907758
0.596666
0.06522717
-4.760758e-06
-0.07111257
0.5715436
-0.3007817
0.0004563776
0.06971072
-0.3409069
0.132331
-0.155156
-0.5697818
-9.354164e-06
0.5926162
-0.008030373
-0.2200689
0.0001053416
-0.01691322
0.5707512
-0.07174633
-0.6303616
-6.449414e-05
0.1314215
-0.8116322
0.8634502
-0.1195582
-0.0001369092
0.06787705
-0.9100941
0.619948
-5.323423e-05
0.9444391
-0.1742782
-0.5616844
-0.000192735
0.08352923
-0.7736082
0.1853005
1.578406e-08
0.1012544
0.4870533
0.4194777
0.8903499
-0.4567628
-0.0001974967
-0.852864
-0.6844847
0.625594
0.5971707
-3.610298e-06
-0.5382764
0.277605
0.4638778
-1.108571e-05
-0.5479554
-0.1935163
-0.1965196
-2.604728e-07
0.5230524
0.1734675
-0.5944382
0.1607561
-0.1788828
0.6126194
-5.445393e-05
-0.09350316
0.3228686
0.090624
-0.3203933
0.0003956787
0.4402073
-0.4877915
0.2076839
-5.302195e-05
-0.1600467
-0.03896478
0.03303882
-0.642384
-2.820977e-07
0.6483102
-0.8605204
0.7921523
-4.206517e-08
0.0683681
0.1976098
0.01715779
-0.1520161
-0.05019019
-0.9154497
-0.0693633
0.824239
-0.0006760594
0.1612501
0.07772938
0.04432321
0.004025259
-0.0002827273
0.5589444
-0.5925665
0.2458596
-0.0001240211
-0.2121134
-0.08490324
0.06999659
-0.003752326
-0.09355402
0.1122451
-0.6327922
0.5811715
0.1604675
-9.599773e-05
-0.1087508
0.2123747
-0.6794549
-0.272826
-2.022791e-05
0.7399264
-0.834146
0.7453507
-0.430412
8.048026e-06
0.5191993
-0.5259831
0.4666359
0.2713491
-2.026525e-05
-0.2119817
0.3134114
0.6147707
-0.3246084
-0.0009082968
-0.6026649
0.1925277
0.6845235
-0.1538183
-0.0003524874
-0.7228814
-0.6865074
-0.04664854
0.6106788
0.1223856
0.000111819
0.389689
-5.720046e-05
0.08032911
-0.4699609
-0.0422031
0.04052647
-0.5761785
-1.755462e-06
0.5778569
-0.5294766
-0.4494537
0.0001716399
0.4153731
0.5633865
0.1514373
-0.3402137
0.02377716
0.1162728
0.04877171
0.06319383
0.8173026
1.38584e-05
-0.03707656
0.5433299
-0.04344521
-0.5449675
-0.0002792645
0.0453621
0.4802741
-0.5436493
0.05589529
-0.0001995876
0.007702523
-0.8001247
0.7872129
-1.08932e-07
0.01291191
0.4022497
-0.4143044
0.7661864
-0.000178235
-0.7539526
0.06573831
0.8533572
-8.89431e-05
-0.2641864
-0.6548202
-0.6055592
0.5125389
-0.04248518
-0.0005190856
0.1360256
0.7312405
-0.004327499
-0.0008858181
-0.6365516
-0.08947476
-0.07358852
-0.6823843
-0.0009509911
0.1513649
0.400201
-0.4151144
0.6386747
-0.001263727
-0.622495
-0.3746261
-0.7030369
0.6727702
0.4057688
-0.0008670222
-0.2975702
0.2454365
0.8093132
-0.0002024769
-0.7569712
0.05377601
0.01051584
-0.6706792
-0.0001447304
0.606532
-0.2362986
-0.5121298
-3.412811e-06
0.5238935
0.2245384
-0.1144397
-0.9842269
0.16835
0.9304185
-0.0001018511
-0.1472231
0.1350725
0.01061268
-0.001297024
0.002915015
0.5623797
-0.1149644
0.0002499934
0.1122253
-0.559885
-0.05732395
-0.5731286
-3.491018e-07
0.5914881
0.3758034
0.7785677
-0.0002396632
-0.7518779
0.06037971
0.5998399
-0.07530895
0.00021699
-0.5851275
-0.6793467
0.6715209
0.3294582
-0.0003851333
-0.3212473
0.20039
0.7460593
-0.1855944
-0.0005519492
-0.7603029
-0.7007581
0.6429497
-0.0001175566
0.05792598
-0.340511
0.7221781
0.3232378
-0.0003542705
-0.7045497
0.357714
-0.494619
0.7930227
-0.0002459953
-0.6558718
0.6949561
-0.3151546
0.2137104
-0.5934993
-1.260043e-05
-0.9467074
0.9139422
6.222002e-06
0.03275905
0.7483005
-0.0001111396
-0.02102949
-0.7271599
0.8278517
8.852477e-06
0.02677042
-0.854631
0.6523169
-0.6519026
0.2844911
-0.0002532752
-0.2846522
-0.2046013
0.2594383
0.7509671
-0.0005086916
-0.8052954
-0.5135062
0.5125244
0.7034723
-3.478666e-05
-0.7024556
-0.7943264
0.8252759
0.2032095
-0.0005360916
-0.2336234
-0.3519175
0.7404963
-0.0002900501
-0.728799
-0.7474732
-0.2952336
0.7732457
0.2698282
-0.0003553406
-0.3600124
-9.804615e-05
0.231183
0.127764
0.001163441
-0.3718438
0.7978309
-0.0004780843
-0.8001349
-0.2437758
0.8582172
0.3302124
-0.0006108599
-0.9440432
-0.682079
0.3194528
0.686102
-0.0002706117
-0.323205
-0.5232626
0.4852471
0.4383537
0.000196203
-0.4005344
0.545626
-0.614208
-0.6298488
1.280305e-05
0.698418
-0.7119244
-0.6797312
0.7025262
0.6891377
-7.788716e-06
-0.5999882
0.5341761
-9.15533e-05
0.06590369
0.6727789
0.08479009
-0.6368422
0.001299838
-0.1219116
0.3582382
0.3792449
-0.1963806
-0.001013201
1.013622
-2.323393e-07
-0.1059238
-0.907698
0.07356392
-0.4928716
0.4554578
-0.03690846
0.0007586872
-0.867209
0.9072897
0.2337777
-0.0003472015
-0.2734571
0.1901651
0.3851047
-4.763378e-05
-0.1350148
-0.7471209
-0.5299476
0.7685831
0.5085635
-7.797351e-05
-0.3048948
0.1997611
-4.747319e-05
0.1051812
0.5950663
-0.1439616
0.1337292
-0.5848278
-6.072163e-06
0.5911619
-0.1799914
-0.4732406
-1.986156e-05
0.06208994
0.1647753
0.5450227
-0.1955148
-1.475692e-06
-0.5142817
-0.3391975
-0.8113173
0.3094657
0.8414396
-0.0003900238
0.3316267
0.7361658
-0.000943157
-0.7506812
-0.7528123
0.1904648
-0.0009191684
-0.2310624
-0.5442705
0.5568875
0.1521595
-1.149309e-06
0.1702928
0.7449703
-0.0003315362
-0.7224058
0.3962908
0.6900336
-0.001034568
-0.8349479
0.4093997
0.5920809
-0.001348762
-0.5999302
0.2276254
-0.6895634
-0.3281729
9.943213e-05
0.7900116
0.0398183
-0.03200102
0.05953729
-0.00517884
-0.06218971
0.1933419
-0.5717261
-0.0005058394
0.4879586
-0.1090682
0.1753434
-0.1796125
-0.1783444
-0.003106194
0.1856361
-0.08516356
0.07707186
0.004733487
-7.720786e-05
0.00347259
0.05776799
-0.1072124
0.2259853
-0.001285732
-0.4689847
0.5797193
-0.09718446
-0.0004644834
-0.01308564
0.006295068
-0.0280043
-0.5871942
-0.0002928642
0.6091963
0.4271802
-0.4041019
0.7379703
-0.0001133662
-0.7609353
0.2603017
-0.7023139
-0.0005254046
-0.3049271
-0.02838607
-0.02034878
0.03148021
0.02018335
-0.002926399
0.05459275
0.02292076
0.0002139563
-0.05099745
-0.02672979
-0.467076
0.4091355
-1.097701
-0.0001158305
1.155804
0.3932063
-0.7017808
-2.699751e-06
-0.3759075
0.002387661
-0.5921287
0.03842627
0.5513043
1.046099e-05
0.008821106
0.3404175
-0.1389194
0.2755768
0.3854371
-0.0009618142
-0.3249232
-0.3351289
0.1051103
-0.002244252
-0.0666188
-0.0362238
0.08359314
-0.07456236
0.0008907372
-0.009874822
-0.4001734
-0.001563345
0.432195
-0.02861741
-0.4410762
-0.0002840502
-0.005140969
0.4467514
-0.01735763
0.1214947
-0.06839204
-4.063812e-05
-0.03569018
-0.8196433
0.8480877
-1.62153e-07
-0.02844423
-0.01579319
-0.01107735
-0.0005800142
0.02008809
0.007378773
-1.048298
-0.0005383273
-0.07161516
1.121224
0.1869206
0.6924108
-0.0004122853
-0.6785291
-0.04056695
0.05455954
-0.593618
-8.965312e-07
0.5796264
0.987874
-0.9293206
-0.0002412839
-0.05818614
-0.2643502
-0.5015656
-5.869569e-05
0.5124961
0.2534785
-0.5149192
0.03986316
0.4660267
0.0003161542
0.008713416
-0.5836163
-0.06766172
-2.617153e-06
0.6090776
0.8803556
-0.8361621
0.0006712324
-0.04486456
-0.0377841
0.08062755
-0.6517677
-6.024088e-05
0.6089845
0.7889556
-0.7444546
0.00115707
-0.04565775
0.1197739
0.5306417
0.0001630348
-0.5901989
0.07487186
-0.7047072
-9.308413e-06
0.7621756
-0.01933396
0.04011704
-0.04303
-0.0001815966
0.02244741
-0.221735
-1.867723e-06
0.4839464
0.2377905
-0.001179177
-0.09098749
-0.0004575117
0.007500949
0.2159671
-0.2116273
-2.92813e-06
0.4956631
0.08095962
-0.295799
-0.0007943225
0.4246612
-0.2088676
0.0757041
-0.06295584
-8.508156e-05
-0.01261889
0.5390157
0.02534702
-0.001801916
-0.5615858
-0.0009750442
0.02500168
-0.2173477
0.002515127
0.1903119
-0.0004701433
-0.03554083
-0.1044952
0.0115136
0.1292005
-0.0007003242
-0.4494551
-0.003098505
-0.008610903
0.4613982
-0.5727367
-0.08514249
0.5679045
0.0005009697
0.08947366
0.08624389
0.8220404
-0.7463522
-0.1614891
-0.0004430405
-0.04230596
-0.1972206
0.03574505
0.2034474
0.0003212941
0.2177536
-0.223324
-4.708329e-07
0.5055708
-0.1869924
-0.9451093
-0.0002027105
1.074714
-0.4444878
-0.7972916
-0.0003747975
0.8266858
0.4154684
-0.02327112
-0.0005629638
0.02468179
0.001313567
0.3931915
-0.2519368
-0.6061045
-0.0002220772
0.4650719
0.1757763
0.5663399
-0.004710216
-0.7375357
0.0001297891
0.006728379
-0.8911734
-0.0003753818
0.9710643
-0.1092214
0.1098675
-0.03524062
6.563946e-05
0.03458215
0.4021391
-0.3037775
-0.8366694
-0.0003435538
0.7386514
0.7095633
-0.6820594
0.001976701
-0.02948016
0.04118546
-0.009363848
0.0003577867
-0.03215375
-0.001104392
0.1047662
0.1947897
0.6350205
0.2405961
-0.6748338
-0.0001710978
-0.2006117
-0.02503136
0.01394172
0.6491754
-0.0004829239
-0.637603
-0.03191678
-0.6155775
0.08498072
0.5634147
-0.0009012007
0.1480872
0.6351165
-0.0008168419
-0.4689756
0.03076662
-0.02567583
0.672023
-0.0005645906
-0.6765492
0.02651336
-0.0003242476
0.7045811
-0.0005463194
-0.7302239
0.006006199
-0.0111981
0.7252163
-0.0002896759
-0.7197347
-0.6710271
-0.3100855
0.6821588
0.2993043
-0.0003502656
0.005327265
0.01129654
-0.4490616
0.000419578
0.4320117
0.6725598
-0.03429413
-0.0001497896
0.03017019
-0.6682859
-0.53682
-0.4021165
0.5617857
0.3771295
3.474484e-05
0.5689718
-0.4076129
0.3843103
-0.0001452958
-0.5455239
0.009603103
-0.0194327
0.7089193
6.766921e-06
-0.6990965
0.06294169
-0.1197719
-0.1975876
-0.01031509
0.2646884
0.08774791
-0.1345836
-0.7836707
-4.522914e-07
-0.221336
0.7238968
0.178337
-0.6804679
-0.000421791
-0.6939073
0.3447405
0.7071572
-0.0002763209
-0.5204553
-0.0001143168
0.5427604
-0.02099564
0.9545179
-1.368374e-05
0.08279583
-1.0373
0.6207416
0.08876797
-0.5621965
-0.147165
-0.0001480655
-0.4226861
0.7867744
0.3181305
-0.6822172
-1.471598e-06
0.0924739
-0.09850072
0.5818767
9.12964e-05
-0.5759412
-0.40411
-0.001633563
0.09442086
0.3244874
-0.2054351
0.24956
0.5149235
-0.0001040117
0.1111596
0.3008407
-1.01877e-06
-0.03895774
-0.3730416
0.6596528
-0.64481
0.0008200313
-0.01555463
0.01792465
0.6631913
-0.01043734
0.0002486327
-0.6709272
-0.3736291
-0.2470885
0.4604149
0.1606311
-0.0003262871
0.1456062
0.0414752
-0.004237516
-0.1430852
-0.007716997
-0.7150525
0.6516257
0.07193239
-0.0007904436
0.9428313
1.738877e-05
-0.541207
-0.9825796
-0.1842
-0.00233951
0.2328799
-0.0459751
-0.2254377
0.6467008
0.1725597
-0.5953228
0.001525388
0.4350332
-0.05432235
-0.5072264
0.1267834
-0.0002674952
-0.6782004
0.07409969
-0.236471
0.8406896
-0.0001178117
-0.4913799
0.00100849
-0.001141303
0.4917068
0.2000319
-0.1543748
0.3896013
-0.0002251315
0.595754
-0.04880592
-1.985748e-05
0.1480278
0.6234586
-0.5974374
0.0008179908
-0.02680948
-0.5214195
0.1490827
0.3974347
-8.975267e-05
0.9347087
-1.13453
2.674127e-07
0.7653105
-0.5654891
0.3608408
-0.7637729
0.7585044
-0.3553651
-0.0002072104
0.1897509
0.5771541
-0.1757017
-4.139595e-05
0.6470681
0.0005758214
-0.0001382383
-0.6552223
0.05924239
-0.1083481
-0.005288612
0.1274766
-0.07308981
0.7573251
1.453505e-06
-0.9817042
-0.8082822
0.807586
0.4050438
-0.8529393
-0.3595459
-0.0001446784
-0.4694702
0.002696421
0.1972827
0.2696058
0.03699165
-0.03882331
0.5639934
0.0005129763
0.6944169
-0.6569951
-0.2578512
-0.0008968484
-0.1592319
0.8444493
0.009445841
-0.0003411989
-0.6943214
-0.8290497
0.6405056
-0.5141698
-0.0003235042
-0.6272139
0.5947398
-0.1718655
-0.000261751
0.5758152
-0.5402389
0.002030398
-0.03760668
0.8425406
-0.1750212
-0.8639223
0.1964626
-5.968521e-05
-0.07228941
0.08261642
0.5997061
0.0002615222
-0.6102946
0.5281831
-0.5185861
-0.3783505
0.3683053
0.0004489196
0.5900712
-0.599241
0.05770672
-0.0001677832
-0.04836918
-0.2788622
0.5475223
-0.0001692533
0.3522507
-0.5430939
0.4629544
-0.4566112
-7.281561e-05
0.1043817
-0.1226324
0.1669816
-0.00343072
-0.145351
0.02802329
0.1207054
0.002746892
0.3839434
-0.05507798
3.485794e-05
-0.1231705
-0.8925095
0.862186
8.531479e-06
0.03031504
0.6724514
-0.6183619
0.3484163
-0.0003667047
0.6075642
-0.5670082
-0.2670876
0.001096309
0.2320537
-0.2322814
-8.110818e-07
0.5002285
-0.3952404
-0.05168581
0.3135165
-0.001984135
0.135402
-0.04258198
0.0553716
0.1061246
-0.001446286
-0.1175496
0.009985896
0.6588562
0.0007461737
-0.6511861
0.02694294
0.7132558
0.0002278212
-0.7225019
0.1450956
-0.1021457
-0.1288073
0.08532243
0.0005093413
0.5082478
-0.4438073
0.001598458
-0.06603896
0.5325662
-0.5125668
0.08498167
-0.001023523
-0.1039569
0.2732178
-0.1723197
1.007044
2.436201e-05
-1.107967
-0.5923393
-0.07836221
0.5980875
0.0003254948
0.08628115
0.5749685
-0.0003615745
-0.5578261
-0.1030614
-0.4230616
-0.1399109
0.4374695
0.1252229
0.0002988421
-0.5431373
0.5520639
0.001549495
-0.01012912
-0.310788
-0.1023671
0.3691265
0.002451198
0.04158827
-0.2799882
0.3434619
-0.003059796
-0.06011833
-0.3542721
-0.6386864
0.3222688
-0.0003374608
-0.6675884
-0.3064039
0.6708631
0.3035894
-0.0004601757
0.4602066
0.4495485
-0.599991
-0.3097654
1.314224e-06
-0.5730378
0.5106141
0.5239346
-0.0004753544
-0.4610355
0.5200267
-0.4885651
0.1358835
-0.001189274
-0.1661406
0.6401832
0.1086058
-0.6573682
0.0001100892
-0.0915309
-0.2304483
0.1557271
-0.2905369
0.3653966
-0.0001384749
-0.08945288
0.624121
0.105353
0.0001621337
0.4609984
-0.1882213
-0.4643663
0.1911784
0.000531749
-0.001430713
-0.002614488
-0.05225259
0.05634517
0.414948
-0.3863342
0.5131449
-0.5412771
-0.0004815271
0.5439393
-2.222781e-05
-1.220152
-0.6101875
-0.04716658
0.5526316
0.0382473
-0.0003824666
-0.1056789
-0.01329409
0.003466594
0.1155535
-0.04204057
0.003533296
0.007536586
0.03247165
-0.00148795
-0.3964081
0.0002791732
-0.01916367
0.428312
0.5944689
-0.5726691
0.4853119
-0.5071131
1.347403e-06
-0.03224194
0.06175182
-0.002146098
-0.02732819
0.1158695
-0.06382543
0.02182059
-0.06121347
-0.2789623
0.2169502
0.1524115
0.002706909
-0.09306771
0.5359887
0.02280669
-0.512783
-0.04600907
-3.292711e-06
0.2114604
-0.2230904
-4.752131e-06
0.5116348
-0.4828026
0.0289906
0.4359625
0.01937077
-0.001518384
-0.06141623
-0.04729575
0.02557612
0.08315551
0.6984945
-0.5723364
0.03219668
5.520667e-05
-0.1584099
0.01532536
-0.06592223
0.6184782
-3.48195e-08
-0.5678812
-0.253268
0.6138015
0.2920011
-0.0002176699
0.06115934
-0.3012381
-0.07179798
0.001102714
-0.03249652
0.4386628
0.002411885
-0.4075897
-0.000988317
-0.7125786
0.658175
-1.876992e-05
-1.110731
0.1563009
0.002694083
-0.1275658
-0.03141822
-0.2703202
-0.2472365
0.3405928
0.1752313
0.001782705
-0.6582866
-0.01039974
-0.0008096232
0.6689895
0.0005067402
0.5781465
-0.571936
0.4159976
2.658054e-05
-0.4222347
-0.645691
-0.07460069
0.5932742
0.1281965
-0.00117919
-0.94918
0.2916726
0.9982216
-0.0007166758
-0.3399387
-0.2508726
0.002458161
-0.01157224
0.2599869
-0.3026884
0.00714097
-0.03538849
0.33094
-0.2372904
-0.0007333057
0.005954739
0.2320683
-0.2410789
0.005024636
-0.01140064
0.247455
0.2510915
-0.2960318
0.002049378
0.04290038
0.2521696
-0.2443231
0.001960199
-0.009806161
0.2416043
-0.245524
0.003334105
0.0005869034
-0.2717566
0.002693007
-0.01983542
0.2889
0.2276349
-0.2226639
0.0003539854
-0.005324276
-0.1644696
0.008247148
0.1676244
-0.01140938
0.2207085
-0.2073195
0.0008464675
-0.01423476
0.07876418
0.569159
-0.557376
-0.09054581
-1.256409e-06
-0.6600744
-0.137784
0.6497034
0.1480505
0.0001045544
-0.5004041
0.3254591
0.6044578
-0.429418
-9.470693e-05
-0.01477254
0.5733809
0.03646603
-8.051147e-06
-0.7203476
0.3813881
-0.0003868824
0.7325378
-0.4370494
-0.4102064
0.5569117
0.2903337
1.034002e-05
-0.08104096
0.6039052
0.06734985
-0.0001429076
0.5697305
0.4859815
-0.5100952
9.18972e-06
0.6091992
0.3756099
-0.6488877
5.158355e-05
-0.335973
-0.01589027
-0.5237033
-0.002830677
0.05962462
0.1989159
-0.04442295
-0.0006538443
-0.1894165
0.009383521
-0.1614096
-0.01237996
-0.1252908
0.1364984
0.02480509
-0.03596876
0.01892194
0.5225217
-0.04520796
-0.4961796
-5.604403e-05
0.02402476
-0.02616155
-0.01449253
0.0001144483
0.01652572
-0.1476952
0.1654664
0.4408594
0.002385865
-0.0104842
-0.02554935
-0.002528334
0.01019602
-0.8000738
0.8144585
-0.06814404
3.488056e-05
0.05372446
-0.05205534
0.7499315
4.42777e-05
-0.7232037
0.02528327
-0.8929938
0.06455647
0.714063
-6.534773e-05
-0.9068072
0.8741306
1.733004e-05
-0.7150618
0.09092649
-0.4066859
-0.07597256
-0.00350897
-0.09877241
0.1493842
-0.6832914
-0.0001125372
-0.6288606
0.05152193
-7.111383e-05
-0.2342225
-0.1583682
-1.354746e-07
0.5154988
0.1428696
-0.6105781
0.612389
0.09059529
6.769967e-05
-0.4913829
-0.397951
0.4797121
0.4101902
-0.0005674273
0.1166219
0.5567898
-0.0008335212
-0.1400119
0.6563894
-0.05209648
-0.6660507
0.0617583
-5.738996e-07
0.181549
-0.3379244
-0.2414689
-0.002001251
0.3998134
-0.823604
-0.3191672
0.4164984
0.7266201
-0.0003472135
0.7245384
0.09380663
-0.7321905
0.0002018168
-0.08635642
-0.07402892
0.4332113
7.588667e-05
0.2114954
-0.4520303
-0.1581716
0.5458731
0.06453207
-0.0002037816
0.1990225
-0.001311086
-0.386546
0.1888245
-0.09144475
0.0003086881
-1.480034
-2.524939e-05
0.4292388
0.07080275
0.0003940544
0.1148479
0.2401303
0.114558
0.5234676
0.001217896
-0.5347738
-0.1044697
0.751764
-0.04368556
-0.7583651
0.05028703
-3.543063e-07
-0.1842639
0.5553869
0.1398357
-0.5112328
0.0002893967
-0.6093291
0.0383924
0.6726266
0.000626354
-0.1023111
-0.03785899
0.7237893
0.03846415
0.0001439879
0.1550648
0.6822981
-8.52321e-07
-0.1809726
-0.2919037
-0.4896658
0.3297292
-0.0001902198
-0.0004053371
-0.5518828
-0.01943796
0.02671681
-0.4559972
0.08904168
-0.2014543
0.4964859
0.3003653
-0.001598918
-0.5937966
-0.06113391
-0.03590408
0.05582484
-0.001405596
-0.003049209
0.5691814
0.0005562107
-0.5352426
-0.03144465
0.1772598
-0.5536326
-0.2180113
-5.405003e-05
0.02798642
-0.03721257
0.03521396
-0.0004497549
-0.02556631
0.172247
0.7591107
-0.8054102
-0.1257555
-0.0001919955
0.1453203
0.4115595
-0.4168443
-0.1347853
-0.005287949
0.1216941
0.2389819
-0.08828578
-0.2706642
-0.001738059
-0.7392453
0.7464384
0.002377071
3.293757e-05
-0.7525555
0.7694579
-0.01072505
-0.0001711158
-0.6802408
0.6205255
0.0286808
-0.0008824107
0.6346028
0.1136486
-0.0004034304
-0.7170813
0.04997165
-0.4200701
0.6424503
-0.271721
-0.0006307234
-0.074492
-0.7478884
0.05911155
0.7632405
2.828245e-05
-0.1691864
0.1515272
0.538327
-0.0006041922
0.3450512
-0.2950314
-8.084547e-05
-0.04993071
0.1964731
-0.4713294
0.4356444
-0.1598982
-0.0008919617
-0.002016897
-0.4785716
-0.03779571
-0.1630979
-0.8698264
4.820994e-05
0.2328023
-0.2707278
0.2991947
0.1718803
-0.0003100648
-0.8219238
0.006024903
0.7949767
0.02057977
0.000342524
-0.6033639
-0.1233359
0.6309455
0.0975912
-0.001837307
-0.01394311
0.5734937
-5.285595e-08
-0.5442252
-0.01211567
-0.6274989
0.0377945
-0.001543958
-0.7776445
0.7599142
0.04464893
-0.0004052362
-0.1055277
0.2606563
-0.8152821
7.907353e-05
0.6095259
0.3458263
0.001100202
-0.6140126
-0.3424385
0.7302544
-0.644381
-0.2264979
0.001067043
0.1395618
-0.6687664
0.1795637
0.5509154
-0.0606972
-0.001012535
-0.09592609
0.5386594
-2.140901e-07
-0.5184773
-0.06847994
-0.07361457
0.1015088
-0.001464982
0.002925178
-0.1243666
-0.05905574
-0.01143652
0.002399986
-0.06579036
0.08738148
0.3178362
-0.07448556
-0.3360252
-0.0008307466
-0.2673782
0.03780143
0.2713129
-0.002697521
-0.03896805
0.7147248
-0.549249
-0.7066259
-0.000517878
0.541668
-0.01701972
0.02015301
0.02109891
-0.0002195517
-0.1957984
0.2072215
0.4868924
-3.846108e-06
-0.4983117
-0.04872948
0.1672348
0.02624939
0.0003113686
-0.5708449
0.5913154
0.0006601551
-0.02091825
0.5423713
-0.521116
0.1652622
-0.0001119214
-0.08755777
-0.6498109
3.255385e-07
0.1493498
0.5880185
-0.1342515
-5.876504e-08
0.5097749
0.1244766
-0.4373783
-0.02531217
0.5047746
-1.322849e-05
-0.04207077
-0.4274707
0.488575
-0.007673858
-0.05322042
0.4015756
0.7503862
-0.344303
-7.275481e-05
-0.6536818
0.6075773
0.02147273
-0.0003994059
0.6588833
0.1071382
-4.829915e-05
0.07656742
0.3373372
-0.6888062
-0.0004863378
-0.3156328
-0.2001316
0.1963306
-0.2764279
0.001275755
-0.3957909
0.225571
0.3336583
-0.1634244
-1.403337e-05
-0.4944087
0.001658472
0.3652981
-0.3413828
0.5116267
0.4220122
-0.561004
0.0002355942
-0.3728573
-0.4077436
0.6129486
0.4852432
0.000275483
-0.6907236
-0.3522007
0.1292332
0.4204683
-0.00103542
0.2393575
-0.2340612
-1.278066e-06
0.494705
0.3629302
0.4902543
3.043741e-05
-0.2750685
0.4863847
0.02195991
-0.03148713
-0.4761891
-0.0006683289
0.01747639
0.7105286
0.001115843
0.001134159
-0.05930519
-0.4427664
0.04673438
0.0005275474
0.4548102
-0.4302875
0.3125371
-0.6588017
-8.991011e-05
0.776642
0.6286348
-0.06489135
-0.6116379
0.04795002
-5.553796e-05
-0.2812939
0.2912586
-0.05236827
8.46596e-05
0.3822068
-4.602136e-05
-0.06473668
-0.2782345
0.02047481
0.686148
-0.1944944
3.453429e-05
-0.5121629
-0.5626581
0.07849599
0.5571473
0.0005779593
-0.2455615
0.02784006
-0.02378326
0.2429625
-0.00156119
-0.5370198
0.5470043
0.5011525
0.0005042825
0.02575227
-0.007162711
-0.02016367
-0.003294573
0.004886002
-0.06331924
0.6415188
0.05048013
-4.483106e-05
-0.05572783
-0.6262468
0.1810485
0.5009664
-3.26738e-05
-0.8539872
0.8303187
1.404037e-05
-0.8701771
-0.5713899
-0.497071
0.6068665
0.462001
-0.0004066254
0.1226891
-0.4238268
-0.1485624
0.4499078
-0.0002077072
0.5764347
0.07549773
-0.5731673
-9.13531e-07
0.6148862
0.7115584
-0.5982938
-0.7279481
-0.0002026726
0.05263881
-0.008324921
-0.07991488
0.03591471
-0.000354323
-0.6847028
-0.1748068
0.0001971005
0.03738869
-0.1001892
-1.564052e-08
0.5217277
0.07846159
-0.004026035
-0.3625764
-0.02948915
0.1966046
0.0001705761
0.08364594
-0.1440196
0.3061489
-0.2776014
-0.3436926
-9.497791e-06
-0.549199
0.2378048
-0.2110337
0.5224821
-5.410242e-05
-0.0734386
-0.4811833
0.4795108
0.0741726
0.0009385102
-0.1213405
-0.5830993
0.1136673
-3.349732e-06
-0.005582312
-0.1562127
0.01553981
-0.0008738267
-0.381794
-0.5278051
0.4230667
-0.0001822154
0.4867146
0.002339648
-0.5007456
0.004375165
0.4249285
-0.2523123
-0.4548834
-3.662866e-05
0.2823038
0.5165923
0.3920231
-0.6810531
6.31444e-05
0.5234886
0.0204694
-0.5249445
-9.148396e-05
0.0001621311
-0.04875771
0.02550605
-0.6674824
-0.2309655
0.6008988
-1.20806e-05
-0.3348887
0.004475859
0.33289
-0.0038396
0.001363032
-0.01691427
0.508038
-0.1034211
0.001053716
-0.3887211
0.03338391
-0.6538545
0.1243363
-0.0001399646
0.4962743
0.1434292
0.4869581
-0.3524323
-5.289591e-06
-0.2779497
-0.1406516
-0.4899977
0.5621743
0.06680731
0.001671469
0.5032392
-0.2642566
-0.4237264
0.0004911388
0.4515922
-0.1021946
0.271534
-0.6198131
-0.001111463
0.5259344
-0.5308957
-0.4251688
-0.0001574826
-0.4687166
0.4551699
0.3317535
-0.3181094
-9.750426e-05
-0.008762468
0.7279187
-0.00793346
-0.7112225
-1.554371e-07
0.3676635
-0.08015296
-0.2694665
-0.0004618037
-0.01758305
-0.8451765
0.9483491
4.581342e-06
-0.1031771
0.731751
5.492529e-07
0.2029572
0.6430128
-8.071276e-05
0.03957181
-0.6009194
0.7852347
1.510769e-06
-0.1843168
9.07332e-05
-0.4954289
0.01366408
0.4800031
0.001693751
0.1340875
0.2779082
-0.331235
-0.08141359
0.0006535558
-0.4035135
-0.5108295
-0.0001410128
0.4140799
0.01199664
0.03347636
-0.01402376
-0.03045122
-0.0009829547
-0.05674642
-2.839564e-10
0.5224062
0.03434028
0.09332465
1.229356e-05
0.1817398
-0.05318971
-0.4793226
0.5765694
-3.901348e-06
-0.278009
0.06305588
-0.1872621
-0.07668714
0.0007726016
-0.3846484
0.1310974
0.4327862
-0.1792381
2.910732e-06
0.7997237
-0.7032411
0.07918661
0.0001071744
0.2656276
0.1330974
-0.2742461
-0.002834086
0.309238
-0.2961471
0.003365865
-0.0164564
-0.5765444
0.4607008
0.5350945
-7.187816e-06
-0.4192437
-0.7163585
0.5409797
-0.3381084
-1.890196e-05
-0.5281663
0.1792593
0.001160658
0.4818456
-0.1639047
-0.4836393
0.2101768
-1.108703e-05
-0.3617939
0.09909299
0.3143847
-0.05329934
0.001613183
-0.08495029
0.06290524
-0.04162766
-0.003334594
0.06706987
0.0154203
-0.3623976
0.01202931
6.614995e-05
0.03114613
-0.3531286
-0.04050195
0.0006990296
-0.6570893
0.8568634
6.176233e-06
-0.598716
-0.4664047
0.3801637
0.0002611459
-1.321881
0.2300203
-0.1032142
-5.090759e-06
0.3731989
-0.1412894
-0.2237698
0.3256575
0.03843534
0.001045765
-0.4555591
-2.815297e-05
0.09557482
-0.8784622
0.3853058
0.9129175
-0.0002831386
-0.01932888
-0.5343775
0.1372545
-9.467901e-07
0.4164529
-0.3509157
0.01527016
0.3133428
0.02233392
-4.930092e-05
-0.4554035
0.458447
-0.4400974
4.56555e-06
-0.01432816
-0.3893765
0.05331592
-0.000530844
-0.8626293
0.8750332
-5.108409e-05
-0.01235281
-0.1982655
-0.001904072
0.2869499
-0.07426882
0.02233707
0.2204872
0.03585597
0.003846132
0.03190078
-0.03352786
0.3742449
-0.004995763
0.8898543
-0.04182859
-0.06145441
-0.7865778
6.542958e-06
-0.2476458
-0.6294371
0.1950261
0.6818605
0.0001962619
0.04063002
-0.2738374
0.2431144
-0.01161754
0.0017062
0.0426638
-0.4945848
0.06725276
1.983802e-05
-0.6117488
0.5924319
-0.001503896
0.02096778
1.332957
-1.205471
0.0006259284
-0.1269412
-0.2452964
-0.5092055
0.4483468
0.3068129
-0.0006567382
0.3775215
0.1417658
-0.4287456
-0.09053288
-8.769998e-06
0.4562114
-0.05678429
-0.4502206
0.05056126
0.0002322526
0.007025363
-0.02471761
-0.7645218
7.11538e-06
-0.1851755
0.7237578
-0.03579187
0.0001278584
-0.5029182
-0.5676032
0.4325342
-0.4918987
-0.0002462294
-0.6311978
0.7214732
0.1829146
2.784378e-05
-0.4753992
0.4348466
-3.022955e-06
0.01940043
-0.09490455
-0.006796258
-0.002587535
-0.495818
0.4502571
-0.01000184
0.05550743
-0.4010866
-0.4826961
0.5066752
0.3771105
-3.084514e-06
-0.5912518
0.5508998
-6.249993e-05
0.04042149
-0.0393634
0.5341729
0.05413206
-3.648614e-05
-0.5489051
1.119582
-0.5276761
-1.058821
-0.0001149794
0.02783302
-6.2637e-07
0.2734231
0.01099508
-0.02250431
0.002623095
0.7183073
6.848423e-05
0.3280341
0.009024128
-0.3271095
-0.01265208
0.002708254
-0.03626251
-0.1299286
0.1254028
0.0423512
-0.001629879
0.4803584
-0.4866661
0.4665127
1.663476e-06
0.4020036
0.03086536
-0.3789513
-0.05601916
0.002116728
-0.4114716
0.02656019
0.3834836
0.001558016
0.003958364
-0.02338229
-0.08982359
6.834587e-05
0.01875946
0.3362874
-0.02950554
0.002495694
-0.7955907
-0.4988961
0.614885
-0.0006391255
-0.01623375
0.02632567
-0.2748047
-0.00259813
-0.0001685062
0.003559915
0.4644175
0.0007491469
-0.1838419
0.307754
-0.3948969
0.0006822917
0.6085274
-0.1743521
-0.4936263
0.0001458782
-0.001271626
-1.400697e-09
0.5346893
-0.0334176
0.3478142
0.1673877
-0.1086533
-0.4065435
-5.133075e-06
0.5928278
0.7542695
-0.873889
-0.4729321
-0.0002762304
-0.05454491
-0.03475071
-0.5694782
0.000487691
-0.04950632
0.4190058
0.08699731
-0.000286291
0.1870398
-0.258511
1.189964
-0.0008293549
-0.4581329
-1.78111e-05
0.2851837
-0.4182848
-0.4780868
-0.1739807
0.4562734
-4.251648e-06
-0.1485354
-0.4953873
0.1541283
0.4898031
-8.755263e-06
-0.3589662
-0.3620103
0.3539817
0.3666799
0.0003127904
0.276868
-0.09356735
-0.3253719
0.1403565
0.001724273
0.1109515
0.003221447
0.2071822
0.001511475
-0.4309301
-0.03180257
-0.1227379
0.587406
-0.001926952
-0.5324737
0.2039928
-0.08125839
0.4097573
-1.795769e-05
0.07768023
0.8575569
-0.1211167
-0.814096
-2.437397e-05
-0.7980391
-0.06768329
0.7912064
2.393506e-05
0.3538078
0.5979924
-0.4143667
-0.5372442
-0.0001893205
-0.6644991
0.3871247
-0.4124983
0.6904122
-0.0005395471
-0.3877054
0.264016
-0.1210837
-0.0005112959
0.2003379
0.06734586
-0.2229087
-0.04560114
0.000800473
0.2584746
-0.3865885
-0.2676516
-2.53996e-05
0.02894021
-0.196313
0.2757886
-0.109031
0.0006027921
0.1584554
0.8401156