/*--------------------------------*- C++ -*----------------------------------*\
| =========                 |                                                 |
| \\      /  F ield         | OpenFOAM: The Open Source CFD Toolbox           |
|  \\    /   O peration     | Version:  1912                                  |
|   \\  /    A nd           | Website:  www.openfoam.com                      |
|    \\/     M anipulation  |                                                 |
\*---------------------------------------------------------------------------*/
FoamFile
{
    version     2.0;
    format      ascii;
    class       surfaceScalarField;
    location    "40000/fluid";
    object      phi.gas;
}
// * * * * * * * * * * * * * * * * * * * * * * * * * * * * * * * * * * * * * //

dimensions      [0 3 -1 0 0 0 0];
oriented        oriented;


internalField   nonuniform List<scalar> 
12152
(
0.993233
4.57707e-06
-0.06282845
-0.9961862
-0.658124
-0.1482334
0.7690855
-0.0004724944
0.03835043
0.3805857
-0.4653051
-0.7427247
5.68366e-06
0.8362461
0.7732884
-0.0001501095
-0.05725609
-0.7831756
0.5652802
0.0403079
-0.6440796
0.000793965
0.03620172
-0.08145468
0.404843
-0.0003088593
-0.3941729
0.0714524
-0.003748979
-0.8547346
-0.09891594
-0.0004217835
0.9570074
0.3931898
-0.3662661
0.4190923
0.001151587
-0.4403961
0.6505067
-0.9021202
-0.6859165
-4.730066e-05
0.9429679
0.1981307
-0.1722579
0.1576917
1.903046e-05
-0.188217
-0.8585844
0.8115648
0.2152142
-0.0006399985
-0.1674571
-0.2054028
0.1945997
0.00025091
-0.0009348109
0.01114725
0.7108631
-5.562965e-05
0.6377448
-0.4340604
-0.9046903
0.7465073
0.05767149
-0.001454517
-0.8103061
0.008306153
-0.2309133
0.2209987
0.03770144
0.001431104
-0.02944271
1.12416
-0.2045949
-1.066901
-0.001266883
0.1248007
-0.9145552
-0.1221944
0.9671569
0.0003897262
0.0828958
0.8485255
-0.8623844
0.01340563
1.632271e-05
-0.001730598
-0.8108269
0.8981639
-0.3597663
-6.992097e-07
0.2711419
0.4772596
0.01430498
-0.4703516
-9.780351e-05
-0.01321202
0.5080655
-0.09139817
7.135836e-05
0.1176494
-0.5300343
0.608123
0.6731533
3.695325e-05
-0.6991197
-0.5824357
-0.1065397
0.09766395
0.5540214
-1.860524e-07
-0.5451406
-0.7826433
-0.01110837
0.8158052
-5.294945e-05
-0.02198884
-0.1169138
-0.867142
-5.89369e-05
0.06988053
0.1535398
-0.6340086
-0.2258588
-0.0001075075
0.7068436
0.4884154
0.4612467
-0.0007751964
-0.5534703
-0.7665685
0.7209038
-0.0001516302
-0.02124459
-0.7423933
-0.08520734
0.7819788
0.0001754149
0.05703782
0.2806923
-0.3591394
0.6803933
-0.001635484
-0.6009638
0.27994
-0.3511824
0.0741349
0.003670913
-0.007559738
0.1472404
-0.09825427
0.0004291661
-0.06489276
0.01154604
-0.08367944
-0.7019867
0.001184847
0.04557715
-0.4521436
0.5277454
-0.0004984476
0.3954269
-0.4666135
0.5282123
-0.5874858
-0.2899816
-0.0008792874
0.3537085
-0.1640778
-0.5390857
-7.613833e-07
0.550246
0.1529139
-0.4396652
0.262187
-8.314809e-05
-0.2307926
0.411138
0.7620561
-0.1329316
-0.0009255726
0.05483367
-0.6834154
0.35511
0.8771105
-0.373822
-0.0009243265
-0.8547571
-0.8413682
0.5800775
-0.0007533034
-0.316702
0.5788362
-0.7112105
0.5698485
-0.0005222758
0.502657
-0.3607867
-0.7547405
-0.08397271
-0.0004617267
-0.02008101
0.784062
-0.7891364
-0.03483814
1.104591e-05
0.03818549
0.05174464
0.6659903
-0.1089692
0.0007181248
-0.6053081
0.1046663
-0.1589501
0.04682573
0.0012674
0.003924901
0.6548531
-0.2869972
0.0006747398
0.3366365
-0.7052098
-0.5873845
0.5916198
0.09535847
-5.980991e-06
-0.09958874
0.5816981
-0.2785146
0.0003315088
0.05081835
-0.3573556
0.1661292
-0.1850384
-0.5607081
-1.164467e-05
0.5797396
0.005252969
-0.2093397
-0.0002285928
-0.03359467
0.5645874
-0.1023035
-0.6235331
-9.427207e-05
0.1611882
-0.8025346
0.8577845
-0.08664308
-0.0001800666
0.03906334
-0.9421636
0.6102967
-8.665717e-05
0.9808034
-0.1462932
-0.5711862
-0.0002503067
0.05912278
-0.7591906
0.2274157
7.09806e-08
0.06217634
0.4698302
0.4007706
0.9216576
-0.4469966
-0.0002933989
-0.8807237
-0.6489393
0.6540213
0.5625512
-4.325316e-06
-0.5676398
0.2581284
0.4812458
-1.449158e-05
-0.5684116
-0.162204
-0.1995928
-2.72408e-07
0.5230715
0.1765561
-0.5952207
0.1275973
-0.1475919
0.6207936
-7.037932e-05
-0.06318439
0.3099919
0.06799499
-0.3045394
0.0005865174
0.4206122
-0.4701286
0.16506
-5.867012e-05
-0.1144954
-0.07247673
0.06783171
-0.6374156
-3.523273e-07
0.6420858
-0.8691707
0.7919736
-5.194501e-08
0.008989055
0.2020454
0.01804523
-0.145455
-0.01976056
-0.9005807
-0.1061828
0.8116164
-0.00131343
0.19565
0.06047918
0.05487141
0.004128421
-0.006778808
0.5541909
-0.5889924
0.2031919
-0.0001423133
-0.1674198
-0.0790601
0.08631522
-0.003988799
-0.1133481
0.1075531
-0.6217503
0.5675361
0.1124276
-0.0001061859
-0.05878694
0.2459723
-0.6668789
-0.3045217
-2.490784e-05
0.7253699
-0.8451954
0.7520937
-0.4545845
8.198917e-06
0.5469875
-0.5039452
0.455129
0.291879
-2.940736e-05
-0.2351523
0.3432758
0.5962026
-0.3545581
-0.0009853024
-0.583479
0.2210189
0.6712907
-0.1835626
-0.0004457186
-0.7094396
-0.700481
-0.005927529
0.6196045
0.08980203
0.0005441871
0.3531204
-6.150951e-05
0.02156482
-0.4362797
-0.07608352
0.07422096
-0.5739327
-2.096417e-06
0.5758185
-0.5094656
-0.4745641
0.0001855967
0.4315992
0.5525298
0.1715215
-0.3309002
0.02592971
0.1478588
0.06054638
0.01370361
0.8186044
1.589355e-05
0.0141039
0.5507247
-0.008924789
-0.5528379
-0.0003393932
0.01203203
0.4912542
-0.5500139
0.02208191
0.0001241163
0.032899
-0.7895792
0.7706866
-1.554366e-07
-0.05008178
0.3819687
-0.3929708
0.7869942
-0.0002464723
-0.7774113
0.08598282
0.8478217
-0.0001274161
-0.2833863
-0.6524246
-0.5989201
0.5021172
-0.07037082
-0.0005833671
0.1674166
0.7228979
-0.04184164
-0.0007538836
-0.6299434
-0.0494598
-0.1096101
-0.6703013
-0.001244104
0.1821896
0.4355569
-0.4458684
0.6265065
-0.001291298
-0.6140393
-0.332587
-0.7271068
0.6911729
0.3738874
-0.0009574828
-0.3246693
0.2815158
0.7873199
-0.000192084
-0.7425101
0.01846304
0.05064764
-0.6767717
-0.0001754264
0.6083466
-0.2617861
-0.5098616
-4.504161e-06
0.5203127
0.2513396
-0.09284282
-0.9862374
0.1444548
0.9363831
-0.0001386577
-0.163973
0.150889
0.009387418
-0.001435539
0.003243825
0.5699757
-0.1447988
0.0003446485
0.1453919
-0.5699178
-0.08974892
-0.5713756
-4.325943e-07
0.5886499
0.3600375
0.8015203
-0.0002693662
-0.7787103
0.08554281
0.6075361
-0.1069767
0.0002373817
-0.5862347
-0.693659
0.685042
0.3002221
-0.0005267582
-0.2886002
0.2315835
0.7302296
-0.2173539
-0.0006656564
-0.7431312
-0.6798554
0.6178834
-0.0001327602
-0.003907615
-0.3189888
0.7426839
0.2978574
-0.000499665
-0.7212018
0.3286195
-0.4653064
0.8025729
-0.0002749345
-0.6654372
0.6919895
-0.3434676
0.2404814
-0.5890709
-1.641354e-05
-0.947662
0.9118221
7.685279e-06
-0.03367915
0.7448628
-0.0001297485
-0.08623311
-0.7277311
0.8107226
1.086949e-05
-0.03632971
-0.8437898
0.657491
-0.6590293
0.2428009
-0.0002941926
-0.2403188
-0.1669412
0.2267995
0.7588779
-0.0006265396
-0.8131803
-0.5046886
0.5025772
0.7271351
-6.025278e-05
-0.7241854
-0.8120509
0.8423081
0.1847063
-0.0003284709
-0.2159185
-0.3301735
0.7628589
-0.0003681647
-0.7439855
-0.7718481
-0.2699202
0.7960074
0.245151
-0.0003714768
-0.3051805
-0.0001067132
0.2002592
0.1173569
0.03283928
-0.3349229
0.8007611
-0.0004650591
-0.7994706
-0.282399
0.8519957
0.3576728
-0.0008036296
-0.925515
-0.6982666
0.2915382
0.7014018
-0.0002926868
-0.2944456
-0.5386603
0.508283
0.4174253
0.0002511637
-0.3871156
0.5765882
-0.5827978
-0.6608
1.539629e-05
0.6666937
-0.7085411
-0.7072763
0.6982123
0.7177663
-3.33597e-06
-0.5713062
0.5031093
-0.0001009373
0.005038866
0.6809341
0.06055113
-0.6459352
0.00198883
-0.1009999
0.3915403
0.3609586
-0.2236216
-0.001514577
0.9760178
-3.015867e-07
-0.1685705
-0.8741504
0.1021623
-0.4958886
0.4531006
-0.06196648
0.0009468853
-0.8888606
0.9370053
0.2143174
-0.0007064806
-0.2524957
0.1544588
0.3669588
-5.320082e-05
-0.0957934
-0.7714106
-0.5176442
0.7951566
0.4949453
-0.0001212148
-0.2642525
0.1522738
-4.988461e-05
0.04886018
0.5924651
-0.1715089
0.16139
-0.5823836
-7.740926e-06
0.6005094
-0.1620614
-0.4768776
-2.706677e-05
0.03845631
0.1924087
0.5441033
-0.2232727
-1.920206e-06
-0.5132456
-0.3205205
-0.831972
0.2951482
0.8676518
-0.0005699125
0.3638953
0.7141469
-0.001377471
-0.7226894
-0.7701182
0.1712802
-0.0006528874
-0.2073434
-0.5435891
0.5555234
0.1804746
-1.483556e-06
0.1999121
0.7304345
-0.000165437
-0.70866
0.4179978
0.674976
-0.001256456
-0.8111639
0.4389412
0.5696776
-0.001635894
-0.5716647
0.2628283
-0.679038
-0.3579585
0.0001209203
0.7743351
0.041897
-0.03530882
0.04453776
-0.005402303
-0.04674503
0.1678102
-0.5693854
-0.0006991979
0.4958033
-0.08523869
0.1544751
-0.1536329
-0.1720753
-0.00168243
0.1845632
-0.1059266
0.09759763
0.007798534
-5.59064e-05
0.0002424871
0.05527986
-0.1018346
0.2068695
-0.0008651019
-0.4575388
0.5715241
-0.1261003
-0.0005820204
0.01196852
-0.02075257
0.00114834
-0.5814615
-0.0003584105
0.6011194
0.4097461
-0.3867881
0.7595563
-0.0001722
-0.7753845
0.2300275
-0.7200371
-0.0007078593
-0.2802136
-0.02993615
-0.004789692
0.03335519
0.004683002
-0.003024378
0.05290292
0.001973686
0.0001908936
-0.05079817
-0.005895793
-0.4520052
0.4077108
-1.139819
2.176736e-05
1.200648
0.4318949
-0.6719189
-3.247212e-06
-0.408821
0.03228398
-0.5959659
0.009434825
0.5533112
-0.0007292543
0.008575569
0.3612898
-0.1084968
0.2981788
0.3665857
-0.001170338
-0.3419403
-0.3281034
0.1202971
-0.00245449
-0.08315956
-0.0399963
0.1024659
-0.09359604
0.001027418
-0.009120394
-0.4179504
-0.001694559
0.4523777
-0.02307557
-0.4555303
-0.0002851466
-0.004923244
0.4786725
-0.0171208
0.1222964
-0.08882331
-3.600507e-05
-0.01988757
-0.7961584
0.8213713
-2.184596e-07
-0.09173773
-0.03727767
-0.01196221
-0.0005921401
0.04147157
0.007739984
-1.04745
-0.0006157551
-0.04652813
1.159312
0.217278
0.6766189
-0.0005146196
-0.6615504
-0.07403835
0.08944868
-0.589445
-1.079096e-06
0.5740611
1.006306
-0.9552146
-0.000317339
-0.04448169
-0.2350787
-0.4906612
-7.326592e-05
0.5042177
0.2270698
-0.5174535
0.01739546
0.4708096
0.0006011656
0.02921336
-0.5806842
-0.1000121
-3.149474e-06
0.6046236
0.9028563
-0.8609895
0.000411382
-0.0262251
-0.08019849
0.1198261
-0.6440523
-7.330746e-05
0.6048902
0.8109426
-0.7668025
0.001093947
-0.01850226
0.1474224
0.5213431
0.0001969339
-0.5835466
0.1114672
-0.6937981
-1.127907e-05
0.7485558
-0.02117743
0.04164204
-0.0645886
-0.0001848158
0.04355526
-0.2239672
-1.971605e-06
0.4838235
0.240112
0.001864595
-0.1114416
-0.0005011108
0.003537656
0.2181493
-0.2137772
-3.094656e-06
0.4956099
0.1146342
-0.3066942
-0.00180786
0.4504124
-0.2500219
0.09557632
-0.08231661
-0.0001227545
-0.01187015
0.5386919
0.06337476
-0.03690219
-0.5644062
-0.000982774
0.05431711
-0.219272
-0.0183624
0.1910971
-0.0006381353
-0.03471248
-0.08372144
0.01145224
0.1078994
-0.0007021267
-0.476582
-0.006181562
-0.02142701
0.4755855
-0.5782663
-0.1156614
0.5703705
0.0006704474
0.122595
0.1299599
0.794516
-0.7200112
-0.2061754
-0.0005114338
-0.02565631
-0.1942672
0.01523779
0.1981186
0.0003917131
0.2206813
-0.2261702
-4.927315e-07
0.5055117
-0.141457
-0.9552095
-0.0002339834
1.09329
-0.4041806
-0.8214222
-0.0004367463
0.8477016
0.3781593
-0.0003954879
-0.0006053991
0.002874396
0.01042374
0.3554261
-0.2109166
-0.6285185
-0.0002589845
0.4842394
0.2223064
0.5570406
-0.04910881
-0.7305997
0.0001546775
0.05664362
-0.8969588
-0.0004289332
0.9720617
-0.1303047
0.1310649
-0.03173997
2.544873e-05
0.0309062
0.3485423
-0.2497357
-0.8396049
-0.0003897164
0.7406501
0.7251931
-0.6965682
0.002161228
-0.009826062
0.05977966
-0.02701845
0.0003048855
-0.03193272
-0.001249233
0.08541344
0.2105719
0.6333019
0.1941027
-0.6741805
-0.0001942312
-0.1526246
0.00180582
-0.01929764
0.6530178
-0.0004508046
-0.6342742
0.01498961
-0.6333802
0.04992754
0.5701901
-0.001133301
0.1852653
0.6130157
-0.0009491266
-0.4541152
0.05627698
-0.05748616
0.6771085
-0.0006186093
-0.6751806
0.0629584
-0.03645637
0.7025408
-0.0006385145
-0.7284621
0.0450844
-0.05043357
0.7236604
-0.000318052
-0.7180119
-0.6891685
-0.2832442
0.7005677
0.2744629
-0.0004222384
0.02659174
-0.01076764
-0.4521119
0.0004435229
0.4390222
0.6703863
-0.07312378
-0.0001632029
0.06961149
-0.6667596
-0.555081
-0.3744101
0.5792343
0.3520417
0.0002889458
0.5426369
-0.3835809
0.3969723
-0.0001923326
-0.5541977
0.0494129
-0.05921589
0.7075756
9.524161e-06
-0.6977691
0.03895721
-0.09420987
-0.1981214
-0.01095636
0.2770941
0.1360219
-0.1806616
-0.7676021
-5.289137e-07
-0.1924952
0.7404147
0.156206
-0.6942627
-0.0009587008
-0.7048372
0.3153931
0.7187861
-0.0003145682
-0.5491747
-0.0001981014
0.5710158
-0.00522486
0.927423
-1.595528e-05
0.01698411
-1.010032
0.6281593
0.05486674
-0.5658101
-0.1174573
-0.0001837066
-0.3892512
0.8177892
0.2812124
-0.709603
-1.88946e-06
0.1274851
-0.1323629
0.5875003
9.606901e-05
-0.5825787
-0.4244424
-0.0008067453
0.1204373
0.3388575
-0.1636824
0.2109996
0.5085353
-0.0001203869
0.09626057
0.2752826
-1.697608e-06
-0.01698171
-0.3507669
0.6752043
-0.660275
0.001062404
0.008795701
0.05813534
0.6628667
-0.04930493
0.0002915205
-0.6719888
-0.3710442
-0.2638699
0.4495574
0.1865438
-0.000402907
0.1285502
0.04147714
-0.00438344
-0.124807
0.02817536
-0.7156573
0.648816
0.03579155
-0.001050712
0.9444718
2.262238e-05
-0.5746937
-0.9826917
-0.2114064
-0.002841046
0.2616321
-0.03632341
-0.2013654
0.6599277
0.1471256
-0.6050184
0.0009088579
0.4332369
-0.08251531
-0.5055272
0.1529116
-0.0003297567
-0.6676573
0.1219727
-0.2883064
0.8320295
-0.0001340147
-0.509136
0.001199832
0.001412562
0.5069711
0.1712769
-0.1297819
0.3916427
-0.0002675616
0.5963215
-0.02066978
-2.557411e-05
0.1164598
0.6407233
-0.6111774
0.0004149404
0.007549261
-0.5077997
0.1633062
0.3919945
0.0003717886
0.9779308
-1.097243
3.514437e-07
0.7341007
-0.6006947
0.3378724
-0.7763522
0.7785257
-0.3328568
-0.0002981088
0.1619535
0.5852181
-0.1466378
-5.347837e-05
0.6450523
0.03622761
-0.0002465904
-0.6541528
0.0442903
-0.1137008
-0.005368779
0.131596
-0.05847794
0.7545083
9.769464e-05
-1.023896
-0.8128483
0.823044
0.378783
-0.8692557
-0.3334663
-0.0002014201
-0.5158703
0.001867525
0.1593756
0.2542711
0.008116294
-0.01902178
0.5676444
0.0004788308
0.7154706
-0.6709939
-0.2330374
-0.001484004
-0.1906348
0.8286391
0.04956461
-0.0004450939
-0.6871719
-0.8069699
0.6183784
-0.537949
-0.000287297
-0.6159156
0.5908813
-0.1417911
-0.000339447
0.587952
-0.5460916
0.002707793
-0.01152861
0.8472635
-0.1165144
-0.874458
0.1414278
-6.808079e-05
-0.1071819
0.1172367
0.6008123
0.0002844565
-0.6114665
0.5588242
-0.4929598
-0.4081791
0.3412007
0.0005089654
0.5925341
-0.601764
0.09445861
-0.0002128337
-0.08464593
-0.2480786
0.5560567
-0.0002149799
0.3204581
-0.5213919
0.4404879
-0.4782208
0.0001175073
0.09917876
-0.1273477
0.1501872
-0.003640436
-0.1315354
0.0297703
0.13549
0.01758557
0.3750946
-0.07524387
6.41329e-05
-0.1040164
-0.8891995
0.8544377
1.04431e-05
-0.03510058
0.6818709
-0.6364897
0.3030448
-0.0004216586
0.6212332
-0.5800985
-0.2457087
0.0006572308
0.2348007
-0.2349501
-8.517078e-07
0.5001167
-0.4014632
-0.02930132
0.3253211
-0.001642027
0.1036423
-0.04322892
0.05515503
0.09171221
-0.001533488
-0.1023415
0.04612916
0.6602235
0.0008148564
-0.6525015
0.06717907
0.7122524
0.0002595378
-0.721679
0.1277078
-0.09633576
-0.1134795
0.07665555
0.0005475911
0.516162
-0.4407331
0.002004351
-0.03909907
0.544169
-0.5253511
0.1210936
-0.001158617
-0.1383085
0.2156997
-0.1130386
1.023458
2.830939e-05
-1.126092
-0.5971176
-0.1115821
0.6010171
0.000350837
0.1224339
0.5836438
-0.0004141283
-0.5673649
-0.136058
-0.431581
-0.1135509
0.4461935
0.1009965
0.0005136598
-0.5693102
0.5771025
0.001849874
-0.002948911
-0.3182523
-0.06973013
0.3741303
0.002911893
0.01591169
-0.3064611
0.3721759
-0.003109709
-0.05774716
-0.3242902
-0.6566512
0.2946432
-0.0003834735
-0.6480735
-0.3350903
0.6531752
0.3303783
-0.0005791635
0.479907
0.4183158
-0.6258622
-0.2721893
1.668003e-06
-0.5853723
0.4869284
0.5452961
-0.000596139
-0.4462119
0.5419666
-0.5102703
0.1628375
-0.001710509
-0.1976905
0.6356606
0.1459298
-0.6546949
0.0001266241
-0.12686
-0.2498786
0.1347118
-0.2641923
0.3795949
-0.0001561931
-0.1240759
0.6190812
0.1406474
0.0001906563
0.4901554
-0.196678
-0.488881
0.2157503
0.001510959
0.00514171
-0.002438037
-0.02406971
0.05825288
0.3868426
-0.4160854
0.5408694
-0.5055406
-0.000553001
0.5456661
-0.0004483912
-1.258808
-0.6117884
-0.08225741
0.5607719
0.0739481
-0.0004674372
-0.1023886
-0.01521539
0.02855001
0.1016887
-0.04312547
0.02568763
-0.01469493
0.03245486
-0.001499035
-0.4174165
0.0003411214
0.008907409
0.447973
0.623481
-0.542762
0.4557081
-0.5363582
1.688931e-06
-0.04343359
0.07423279
-0.00234221
0.001114559
0.0970417
-0.0421367
0.02204753
-0.0367867
-0.2563181
0.2066963
0.1800909
0.004018271
-0.1186182
0.5501948
-0.02021418
-0.5188253
-0.01105348
-3.925146e-06
0.213567
-0.2251963
-5.024067e-06
0.5116758
-0.4815416
0.01104637
0.4342465
0.04206616
-0.001494906
-0.05191394
-0.03510137
0.02905093
0.101883
0.6979365
-0.5664136
0.06225
6.728208e-05
-0.1939158
-0.01869011
-0.03043666
0.6173563
-3.818781e-08
-0.5682229
-0.212273
0.6171007
0.2533627
-0.0002550765
0.0396299
-0.3109779
-0.03807683
0.00156521
-0.07119601
0.4501228
0.03625657
-0.4142149
-0.001093542
-0.7080321
0.655738
7.11145e-06
-1.157492
0.1615482
0.002978864
-0.140263
-0.003487167
-0.2596414
-0.2768503
0.3387326
0.1992925
0.002322973
-0.6606216
-0.04793076
0.03757582
0.6703777
0.0005470441
0.553961
-0.5472104
0.4498966
3.184235e-05
-0.4567631
-0.6497179
-0.03547807
0.5905941
0.09556834
-0.001305514
-0.9792265
0.2785877
1.026519
-0.0006242784
-0.3197693
-0.2539153
0.002850284
0.02075421
0.2658418
-0.3100402
0.008555059
0.003747191
0.3387257
-0.2562532
-0.001036871
0.03664227
0.2503181
-0.2617094
0.005457498
0.01390414
0.2683895
0.2515284
-0.3023688
0.002144859
0.07432699
0.2677235
-0.2632799
0.002165925
0.01848588
0.262222
-0.2659382
0.003754867
0.02691597
-0.2801743
0.002875732
0.006869327
0.2987169
0.2462275
-0.2417617
-0.0006837322
0.02583838
-0.1759609
0.009586454
0.1785526
0.01963216
0.2419237
-0.2271789
0.0006999333
0.01064884
0.1098092
0.5669049
-0.5558561
-0.1208551
-1.542667e-06
-0.6493619
-0.1745933
0.639067
0.1848661
0.0001243239
-0.5103711
0.3066006
0.6129816
-0.408009
-0.0001259594
-0.04187061
0.5704886
0.06385862
-1.021595e-05
-0.7477312
0.340761
-0.0004474504
0.7628273
-0.4188419
-0.4430548
0.5309585
0.3308203
1.256221e-05
-0.117161
0.6062555
0.1043866
-0.0001886348
0.544026
0.5161902
-0.4837307
1.111969e-05
0.590745
0.419027
-0.6262496
5.970826e-05
-0.3834243
0.01275564
-0.5219941
-0.002985488
0.0323185
0.1762886
-0.04799089
-0.0005488702
-0.1695613
0.01022792
-0.1748276
0.01742712
-0.1371782
0.1463657
0.0267036
-0.006410627
-0.006407232
0.5245595
-0.02112771
-0.4970269
-7.191949e-05
0.02689819
-0.02834514
-0.02926223
0.000168182
0.03108435
-0.1699145
0.1908268
0.4712776
0.003879123
-0.02541625
-0.02672344
-0.002520165
0.02497674
-0.8091573
0.8211385
-0.02487483
4.047425e-05
0.01287054
-0.01297918
0.7555187
5.304403e-05
-0.7309542
-0.01175472
-0.8946943
0.08529336
0.7220145
-8.859531e-05
-0.9123578
0.8787149
2.375611e-05
-0.7477043
0.06837982
-0.4120962
-0.04882439
-0.003515812
-0.04980589
0.09988196
-0.6727432
-0.0001248561
-0.6170936
0.07246147
-9.475708e-05
-0.2512188
-0.1615419
-1.417073e-07
0.5155136
0.1460402
-0.6124794
0.6148477
0.1258144
6.88876e-05
-0.4668958
-0.4242143
0.4616993
0.4302662
-0.0006141201
0.1495807
0.5707318
-0.001143794
-0.1728024
0.6451766
-0.08829089
-0.6570106
0.1001617
-6.889153e-07
0.1661043
-0.3406315
-0.2259186
-0.002239405
0.4112517
-0.8326772
-0.2821468
0.3823021
0.7342938
-0.0004141004
0.7202053
0.136406
-0.7235276
0.0002372731
-0.1333321
-0.09591963
0.4236766
0.0001594379
0.2345787
-0.4421268
-0.186318
0.5361069
0.0922817
-0.00019838
0.2130955
-0.001206959
-0.3950081
0.2039243
-0.09144475
0.0003086881
-1.521042
-2.589502e-05
0.429402
0.07328688
0.0005667906
0.1338247
0.2539565
0.1418473
0.5303193
0.0009947996
-0.5507904
-0.1324473
0.7374548
-0.08484738
-0.7470417
0.09471381
-4.209734e-07
-0.1687236
0.563498
0.1222917
-0.5171544
0.0006568419
-0.6103827
0.07532969
0.6696841
0.0006736509
-0.1346207
-0.07855076
0.720522
0.07802212
0.0001671751
0.1962969
0.6662273
-1.005118e-06
-0.2173757
-0.3190894
-0.4742912
0.3513469
-0.0002420177
-0.0005880929
-0.5473037
0.01267013
0.03037131
-0.4834416
0.112852
-0.227042
0.4785788
0.320789
-0.001975189
-0.5776898
-0.04603648
-0.0367871
0.04163908
-0.001457299
0.02813705
0.5736108
0.0008910518
-0.5425831
-0.05874973
0.1492657
-0.5505293
-0.1886811
-6.979288e-05
0.02176317
-0.03076597
0.02470459
-0.0004720236
-0.01570075
0.1210066
0.7508188
-0.79882
-0.07255618
-0.0002153037
0.1159498
0.4145338
-0.4214183
-0.09714077
-0.005016609
0.1068902
0.2424192
-0.06882699
-0.2748294
-0.001923913
-0.7372422
0.7441439
0.04248167
4.005646e-05
-0.7502605
0.7661475
0.02943133
-0.0001979058
-0.6592694
0.6087242
0.06575297
-0.0009911929
0.6247016
0.1420594
-0.0004918714
-0.7099149
0.01163205
-0.4364222
0.6606317
-0.2348894
-0.0007435838
-0.03390346
-0.7517014
0.01836808
0.7671416
3.32967e-05
-0.1885935
0.1782798
0.5543865
-0.001185652
0.3617301
-0.3127407
-0.0006169465
-0.0277439
0.2199319
-0.4520395
0.4221863
-0.1859
-0.0009554939
-0.002215902
-0.5070646
-0.0211946
-0.1135395
-0.8826579
5.603194e-05
0.1868055
-0.2831778
0.3069103
0.1471153
-0.000351557
-0.8291241
-0.03277542
0.799069
0.06234179
0.000410921
-0.5986248
-0.1517209
0.6186478
0.1343798
-0.001855407
-0.04722778
0.5726644
-5.893382e-08
-0.5441254
-0.04452784
-0.6238995
0.07431866
-0.00159264
-0.7737867
0.7548019
0.08236577
-0.0004567087
-0.144429
0.3055482
-0.8102235
9.181101e-05
0.6276264
0.3187379
0.001751735
-0.6249933
-0.3179697
0.7402825
-0.6489393
-0.1977942
0.00133555
0.1064041
-0.6741817
0.2172296
0.5484472
-0.09325291
-0.001408443
-0.1264237
0.5383317
-2.673422e-07
-0.5184552
-0.04596227
-0.07017653
0.07448693
-0.001496804
0.00248769
-0.1530925
-0.04038529
0.007391237
0.002612763
-0.03374884
0.07294
0.3202519
-0.04449933
-0.3315843
-0.0009237008
-0.2763233
0.02490389
0.2774864
-0.001947504
-0.02835965
0.7412915
-0.50764
-0.7426004
-0.0006017842
0.5094288
-0.003879323
0.009544918
0.02152313
-0.0002158722
-0.2179486
0.2306179
0.4839558
-5.292788e-06
-0.4966222
-0.04527956
0.1488085
0.01910787
0.0003095343
-0.5945391
0.613531
0.0008377956
-0.01597464
0.5510685
-0.5299573
0.1328225
-0.0001377959
-0.05053254
-0.6552871
4.33141e-07
0.1100886
0.5959128
-0.1374501
-6.138192e-08
0.5098064
0.127714
-0.4325713
0.005922298
0.5031789
-1.702983e-05
-0.07632332
-0.4570395
0.5156951
-0.008096264
-0.05605764
0.3823754
0.7687348
-0.326301
-0.0001105491
-0.6491519
0.6000466
0.05130956
-0.0004222195
0.653469
0.0708474
-5.651432e-05
0.1216052
0.3667742
-0.671448
-0.0005787059
-0.342742
-0.2129207
0.2137844
-0.2697908
0.0007044622
-0.3934135
0.1986483
0.3387353
-0.1393522
-1.718706e-05
-0.5193676
0.002630837
0.4103107
-0.3693283
0.4926306
0.4456219
-0.5452875
-8.427411e-05
-0.3926986
-0.4345247
0.5883984
0.5126517
0.0003384411
-0.666505
-0.3385627
0.1573223
0.4068525
-0.001133501
0.2418971
-0.2365063
-1.346884e-06
0.4945751
0.3951814
0.4590165
3.74261e-05
-0.3002607
0.4980104
-0.01179823
0.00197786
-0.4848728
-0.0007952759
-0.01684457
0.7167331
0.03706143
0.001163146
-0.03087668
-0.4471669
0.02232131
0.000178764
0.4637669
-0.460145
0.3437312
-0.6433253
-0.0001066958
0.7607317
0.6272611
-0.1013831
-0.6088886
0.08322783
-7.088086e-05
-0.2710511
0.2869283
-0.03415905
6.763715e-05
0.3812998
-5.039631e-05
-0.08040053
-0.278502
-0.006219631
0.7040181
-0.1586598
4.230818e-05
-0.5389404
-0.5620459
0.1088507
0.5514877
0.0006756768
-0.2323976
0.01186658
-0.003656811
0.2307675
-0.001700815
-0.5617065
0.5324807
0.5257811
-0.0001284214
0.02914769
-0.0193764
-0.02259203
-0.003338701
0.01570976
-0.100899
0.6401432
0.0882411
-5.98746e-05
-0.09467929
-0.605485
0.2004239
0.4936874
-0.00102607
-0.8580029
0.8314386
2.169687e-05
-0.907093
-0.5830424
-0.4855441
0.5847278
0.4845542
-0.0004664296
0.09093139
-0.4318653
-0.1163742
0.4572578
-0.0002505572
0.5739795
0.1068574
-0.5710168
-1.116228e-06
0.5870803
0.7272351
-0.5602669
-0.7531775
-0.0002321532
0.04565485
-0.007034525
-0.06880125
0.03156727
-0.0003790721
-0.6950975
-0.1448634
0.0002420315
0.01040318
-0.1035886
-1.599582e-08
0.5217236
0.0818736
-0.003992213
-0.381052
-0.02202137
0.1925183
0.0008089094
0.05639404
-0.1308642
0.2896177
-0.2990082
-0.3341206
-1.271046e-05
-0.5546531
0.2072038
-0.1818979
0.5293451
-6.928613e-05
-0.04430135
-0.4892515
0.4854238
0.04600208
0.0005723838
-0.1495177
-0.5803272
0.1424585
-4.23633e-06
-0.006091549
-0.1732837
0.01570057
-0.0007640262
-0.3497003
-0.5353111
0.392873
-0.0002322298
0.4939795
0.002665142
-0.510871
0.007202207
0.416553
-0.2304689
-0.4524489
-4.929561e-05
0.2607163
0.5075944
0.4257425
-0.6702832
7.794943e-05
0.5219489
-0.00545978
-0.5230305
-0.0001164464
0.0001534428
-0.02951726
0.03111929
-0.6544845
-0.2550472
0.5874043
0.0002757797
-0.3441031
-0.02241032
0.34351
0.02052721
0.001060075
-0.03610673
0.5195499
-0.07539051
0.001202797
-0.4076433
-0.006144329
-0.6412566
0.164685
-0.0001655904
0.4819179
0.1189925
0.506314
-0.3264396
-6.972292e-06
-0.298719
-0.1155508
-0.4952115
0.5725303
0.03643216
0.001507048
0.5165247
-0.2454186
-0.4384513
0.0009015983
0.4738111
-0.0760558
0.2395882
-0.6346896
-0.001028734
0.4831076
-0.5549314
-0.3883609
-0.0001847594
-0.4723527
0.42857
0.3403621
-0.2933909
-0.0001292249
-0.04547739
0.7206675
0.03152721
-0.706418
-1.910512e-07
0.3580007
-0.07390296
-0.272123
-0.002537684
-0.02242754
-0.8217185
0.925951
5.727326e-06
-0.1703698
0.7574875
6.261543e-07
0.1590455
0.6628884
-9.885334e-05
-0.0135308
-0.6126039
0.7931907
1.865936e-06
-0.2488372
-0.03459005
-0.503036
0.04394575
0.483272
0.001105144
0.1580254
0.272051
-0.3218999
-0.1023671
0.0007080864
-0.3775333
-0.5196954
-0.000190118
0.3901348
0.02695917
0.03500791
-0.02886026
-0.03144905
-0.0009419886
-0.06023099
6.280747e-11
0.5224815
0.03781261
0.07371168
2.401842e-05
0.163548
-0.03717482
-0.4778018
0.576809
-1.493356e-06
-0.3056983
0.03742717
-0.1953421
-0.05628917
0.0008564087
-0.3799164
0.1560786
0.4277857
-0.2008336
8.293631e-06
0.7819957
-0.6837786
0.1235321
0.0001255138
0.2680897
0.1171259
-0.2798285
-0.003047778
0.3222007
-0.3079613
0.003718584
0.01492592
-0.542727
0.4922988
0.5061872
-8.762458e-06
-0.4555849
-0.7335916
0.5584017
-0.3280719
-3.39294e-05
-0.5185485
0.2088259
0.001351936
0.471103
-0.1963269
-0.475203
0.239007
-1.423045e-05
-0.3689948
0.06977916
0.3271764
-0.0205447
0.001641536
-0.09771702
0.07180995
-0.05453839
-0.003188123
0.0804315
-0.009565258
-0.3743895
0.04133206
-0.0003812459
0.007038283
-0.3591413
-0.009948532
0.0009000306
-0.6565311
0.8581979
7.218928e-06
-0.6327433
-0.4740488
0.3578425
-4.04151e-05
-1.35871
0.2321433
-0.1050402
-5.433203e-06
0.3725044
-0.1376941
-0.2413903
0.3403258
0.03602391
0.00122227
-0.4134125
-3.238024e-05
0.05872319
-0.9076672
0.3755407
0.9452055
-0.0003032782
-0.04624638
-0.5247657
0.1696628
-1.172063e-06
0.4015222
-0.3457006
-0.005528572
0.312037
0.04760022
0.001510427
-0.4844589
0.4837593
-0.418204
5.696133e-06
-0.03689017
-0.4029796
0.07500569
-0.001623204
-0.8401872
0.8460718
-6.057641e-05
-0.0735855
-0.2070813
-0.002313577
0.3011558
-0.0344811
0.0001221059
0.2217683
0.06048294
0.004087899
0.04562001
-0.04443647
0.3502112
-0.007231101
0.8873993
-0.07942124
-0.02197303
-0.7857925
5.259275e-06
-0.2794238
-0.6180185
0.2348168
0.662388
0.0002363953
0.0171451
-0.2748742
0.24708
0.009752879
0.001480873
0.07690148
-0.4832376
0.03253833
4.456938e-05
-0.6429142
0.6130075
-0.002383717
0.02433589
1.370357
-1.244429
0.001342503
-0.1143774
-0.2760048
-0.4969572
0.4340155
0.3311418
-0.0007929962
0.3674381
0.1690134
-0.4208969
-0.1154251
-1.149966e-05
0.4606007
-0.02618662
-0.4569539
0.01820032
-0.0003428498
-0.03312026
0.01518384
-0.7646891
9.166428e-06
-0.2294889
0.7174242
0.008149927
0.0001517546
-0.4963454
-0.5928025
0.4522885
-0.4748761
-0.0003088288
-0.6581877
0.7433866
0.1307954
3.23294e-05
-0.4479221
0.4553438
-3.818497e-06
0.02023283
-0.1072741
-0.009002269
-0.002475505
-0.5169951
0.4755903
-0.01087975
0.05212835
-0.4229018
-0.4728262
0.4965537
0.3971728
-5.387764e-06
-0.5775388
0.5402517
-9.241851e-05
0.06989296
-0.06116102
0.5318836
0.07633845
-4.886206e-05
-0.546282
1.152874
-0.5256238
-1.088094
-0.0001277691
0.01024024
-8.796526e-06
0.261795
0.03320752
-0.06072884
0.04068556
0.7179195
8.222441e-05
0.3359049
-0.01411634
-0.3324654
0.01170251
0.002847239
-0.03862284
-0.1148918
0.1095162
0.04647658
-0.001817374
0.4528468
-0.4626349
0.4893561
2.198986e-06
0.4085041
0.009715873
-0.3830238
-0.03402249
0.002346571
-0.4350712
0.001278615
0.3913099
0.0001877649
-0.002863921
-0.01983929
-0.1062534
7.025113e-05
-0.01107049
0.3404801
-0.005939454
0.002019716
-0.821601
-0.4735219
0.6370455
-0.0007670858
-0.003330613
0.011983
-0.290128
-0.003045199
0.03587101
-0.03104661
0.4726824
0.0006067155
-0.2034784
0.327416
-0.3790533
0.0009480666
0.6187328
-0.1531165
-0.4980721
-0.000557669
-0.004832081
-1.161307e-09
0.5348568
-0.03016047
0.3500473
0.183608
-0.1281742
-0.4055694
-7.367547e-06
0.546307
0.7731638
-0.8942015
-0.4250854
-0.0003227295
-0.09490668
-0.001420776
-0.5646409
0.0005437957
-0.01419431
0.4145151
0.05838008
-0.0007981175
0.1676933
-0.2568772
1.226197
-0.001448759
-0.4651696
-2.74101e-05
0.2997851
-0.4075001
-0.4768461
-0.1954562
0.4543536
-5.902484e-06
-0.1693959
-0.494753
0.1750379
0.4891049
-1.213258e-05
-0.3673527
-0.3501128
0.3337823
0.3802406
0.0004490004
0.2757778
-0.1239271
-0.319574
0.1701128
0.001734998
0.125052
-0.007605494
0.1941333
0.001892432
-0.4487997
-0.06073646
-0.08644812
0.6003513
-0.002168334
-0.5340724
0.1762814
-0.05799166
0.41584
-2.333725e-05
0.03515834
0.8641613
-0.08094892
-0.8183531
-2.839923e-05
-0.8019107
-0.02592904
0.7938249
2.798735e-05
0.4010144
0.5549213
-0.4429327
-0.5135617
-0.0002192605
-0.6891523
0.3529436
-0.3769591
0.7136746
-0.000644296
-0.381369
0.2505813
-0.14347
-0.001036414
0.1740104
0.04697497
-0.1961453
-0.0279985
0.000483098
0.2277872
-0.3833173
-0.2357931
-3.16214e-05
0.004656
-0.1996324
0.2793226
-0.08850497
0.0001643874
0.09821876
0.8344087
-0.8876047
-0.04483231
-0.0002839248
-0.3291695
-0.5349698
0.5892037
0.2697404