/*--------------------------------*- C++ -*----------------------------------*\
| =========                 |                                                 |
| \\      /  F ield         | OpenFOAM: The Open Source CFD Toolbox           |
|  \\    /   O peration     | Version:  1912                                  |
|   \\  /    A nd           | Website:  www.openfoam.com                      |
|    \\/     M anipulation  |                                                 |
\*---------------------------------------------------------------------------*/
FoamFile
{
    version     2.0;
    format      ascii;
    class       volScalarField;
    location    "40000/fluid";
    object      rhom;
}
// * * * * * * * * * * * * * * * * * * * * * * * * * * * * * * * * * * * * * //

dimensions      [1 -3 0 0 0 0 0];


internalField   nonuniform List<scalar> 
4960
(
1000
999.987
1000
1000
999.9837
1000
999.9999
935.1991
1000
1000
999.9997
874.3709
1000
999.9999
970.6329
1000
999.1022
1000
1000
957.1565
944.0282
1000
1000
999.9983
999.0548
1000
968.6787
1000
991.8113
999.8954
975.3552
972.2119
934.2026
980.0813
981.8647
1000
1000
999.9164
996.3795
999.9816
1000
999.987
1000
964.3864
967.9327
999.9744
1000
962.8938
1000
986.7154
999.9999
1000
1000
1000
1000
1000
1000
1000
1000
1000
985.4336
1000
1000
1000
897.794
999.9917
958.3743
999.9999
872.9434
1000
1000
1000
1000
997.4324
1000
980.6345
1000
1000
999.8171
932.7601
1000
999.9999
1000
1000
999.3334
1000
1000
996.3022
1000
998.3668
995.5817
994.2204
1000
1000
999.997
900.3758
994.2859
1000
998.5043
999.8542
1000
1000
1000
1000
999.9267
1000
1000
1000
1000
999.9989
999.9864
1000
999.1459
1000
995.9072
1000
998.2086
1000
999.8288
1000
1000
999.9645
1000
953.7856
1000
1000
1000
1000
1000
999.981
1000
1000
1000
1000
999.7145
999.0889
996.669
1000
998.9678
999.9463
1000
999.9993
878.7256
999.9995
929.423
950.5633
900.2234
1000
999.9938
1000
1000
875.3386
954.4945
996.9697
1000
999.9858
900.8562
1000
937.545
938.4945
875.5351
879.7362
945.2184
1000
957.0378
1000
1000
1000
1000
1000
1000
1000
999.8935
1000
999.6435
999.9852
1000
957.4641
1000
951.5922
1000
994.5907
937.2289
999.9991
954.063
957.1494
965.0734
999.9982
999.9998
959.0486
1000
999.9999
999.9989
916.0488
1000
1000
999.9962
947.0059
999.9999
999.6385
934.1178
970.4079
1000
997.3726
999.9952
999.9963
999.8315
1000
999.9099
999.9117
943.3897
999.7457
987.0126
999.9788
999.9854
944.7038
1000
983.7608
999.9467
924.7857
1000
1000
1000
1000
875.5863
999.9999
1000
934.8009
1000
996.6293
877.4773
1000
1000
915.4682
1000
1000
1000
882.487
998.7489
1000
1000
984.2536
1000
1000
1000
992.8495
880.4779
1000
999.9854
973.0561
1000
1000
999.4831
999.9182
999.9806
999.9992
1000
999.9455
999.6659
1000
1000
999.6504
914.7075
962.453
1000
1000
1000
999.8634
1000
982.5247
874.0796
990.7728
999.9753
964.9917
999.999
999.4736
1000
999.2969
999.7871
961.0768
917.7265
942.7865
916.0888
999.9114
1000
1000
1000
1000
1000
999.9927
999.9985
941.4928
979.6058
999.9764
993.4527
1000
979.9655
960.8729
906.6765
1000
978.9783
892.5986
982.6273
1000
1000
951.3165
983.0896
999.9998
1000
999.9997
946.1896
1000
995.705
984.484
975.1587
999.8569
1000
999.4541
977.7002
998.6604
990.9661
996.1651
995.1011
978.1221
999.4699
995.7758
997.3258
992.3943
981.9845
997.453
1000
1000
999.9928
1000
1000
1000
1000
1000
1000
946.6468
970.2379
984.0453
979.8497
1000
864.9746
977.642
877.1808
1000
1000
1000
999.9991
942.4718
1000
1000
1000
1000
999.3984
1000
1000
916.0504
999.9993
999.9992
1000
999.5633
882.6514
503.4202
999.9879
930.2327
999.973
1000
965.0674
995.5501
999.9886
1000
1000
999.9861
980.8957
1000
870.0369
998.516
1000
862.5777
1000
970.2563
903.9587
1000
999.9977
999.9109
1000
999.9791
1000
988.3175
984.4072
970.5263
914.4622
1000
991.7654
1000
998.6742
1000
998.663
999.9683
1000
970.4141
994.8588
1000
1000
960.8823
913.9112
897.1388
989.8181
893.4522
1000
864.808
1000
963.4293
917.5298
1000
1000
1000
1000
915.9314
999.9998
999.8326
1000
999.8811
997.4917
1000
927.3959
990.3603
999.9933
966.0618
1000
1000
999.9999
1000
972.0678
1000
1000
960.6469
1000
1000
1000
884.4683
990.1059
880.4888
1000
999.4366
1000
999.7872
1000
1000
1000
865.9092
1000
1000
875.4495
1000
1000
1000
999.9626
1000
896.6184
999.9982
926.0611
1000
1000
999.9988
916.1407
990.3244
978.1943
961.278
1000
1000
999.9998
964.6262
989.0049
1000
1000
1000
954.9975
1000
1000
1000
1000
1000
952.2362
999.9999
871.0361
1000
1000
1000
958.5178
1000
1000
901.8815
997.4929
1000
1000
978.2027
1000
957.2122
881.9864
959.9029
960.7481
1000
1000
1000
954.8192
1000
999.7397
1000
946.0429
1000
1000
1000
913.9297
959.0922
923.8305
1000
999.9992
960.6834
1000
953.5237
935.765
1000
1000
999.9942
999.9999
1000
999.9884
1000
1000
885.8104
929.2366
1000
999.9779
999.9947
999.9891
1000
1000
947.8737
877.8249
1000
962.889
998.718
943.1909
1000
1000
911.6924
999.3168
1000
999.6128
1000
1000
1000
999.2001
1000
1000
999.9869
1000
1000
1000
979.6746
997.4269
982.4961
1000
1000
1000
1000
1000
987.5497
975.8972
1000
964.4925
1000
999.9999
898.6977
1000
967.3987
982.0413
1000
1000
999.9992
914.409
1000
1000
924.5191
1000
999.8868
999.9995
999.9934
1000
1000
1000
883.2351
1000
984.8777
961.1349
1000
1000
1000
1000
1000
1000
1000
1000
982.3804
1000
984.864
945.0539
964.7319
967.0686
999.999
1000
911.823
940.6238
1000
1000
1000
1000
1000
1000
1000
1000
1000
1000
999.9756
999.9998
999.999
1000
999.9973
1000
1000
1000
1000
999.9999
1000
1000
1000
1000
1000
1000
1000
1000
1000
1000
1000
982.0154
986.1151
996.4701
1000
939.3806
970.0638
942.8736
1000
998.5202
999.7186
999.9542
1000
1000
999.8261
1000
1000
1000
1000
1000
999.9998
1000
935.2016
943.6133
958.1179
998.0957
937.51
997.1737
941.1383
999.9207
999.947
999.9837
1000
1000
1000
999.9998
1000
1000
1000
1000
1000
1000
1000
999.9995
999.9405
999.9891
999.9582
999.9493
999.9887
999.9935
874.1023
874.7099
872.312
884.177
879.1751
879.4415
878.8207
1000
1000
1000
1000
1000
1000
1000
1000
991.3506
999.0183
1000
1000
997.0592
999.6792
977.7867
969.6979
985.6651
975.6051
996.2278
971.8619
988.6066
1000
976.5951
1000
934.4351
949.8784
936.3276
983.2405
1000
999.7972
999.462
1000
1000
1000
1000
1000
1000
1000
1000
1000
1000
1000
1000
1000
1000
1000
1000
1000
1000
968.4038
958.1026
957.1349
959.2801
957.1359
959.939
957.1349
963.8035
975.7568
935.9569
938.7056
977.3182
985.4818
934.4172
1000
1000
1000
1000
1000
1000
1000
1000
1000
1000
1000
1000
1000
1000
1000
1000
999.9999
1000
1000
999.9994
999.9973
999.9692
998.4337
999.9988
999.3929
976.2313
999.5742
946.2063
1000
1000
1000
1000
1000
1000
1000
1000
997.4349
1000
953.695
993.9732
1000
939.8066
1000
1000
1000
1000
1000
1000
1000
1000
999.9392
1000
933.7065
931.9373
934.6565
935.3919
999.1746
999.7911
999.9411
993.2068
993.4544
983.462
997.0381
955.2407
990.4619
964.9219
948.1655
960.8728
948.5586
986.5786
984.2562
978.9748
979.5084
967.1644
970.5718
980.5981
969.3531
939.2515
934.1145
934.5914
934.6288
932.6225
974.3201
945.1141
967.0991
967.3447
987.5302
976.4715
985.0916
981.5725
986.8918
998.403
1000
975.5998
993.0392
1000
1000
996.1129
1000
1000
1000
1000
1000
1000
1000
1000
1000
999.9997
1000
1000
999.9999
999.9998
997.3328
1000
998.8793
998.7345
999.2572
999.271
995.5349
993.1187
999.4976
998.349
999.9985
993.5826
999.9823
1000
999.998
999.9997
999.9983
1000
1000
1000
999.9986
1000
1000
999.9691
1000
1000
1000
1000
999.8967
1000
999.9846
999.941
1000
999.9856
999.9942
1000
1000
1000
1000
1000
1000
1000
997.8678
974.0574
961.6299
966.872
999.8211
965.3057
963.16
991.1826
970.0129
958.724
956.605
1000
958.6415
961.6447
990.3829
1000
1000
997.1268
990.3353
1000
1000
1000
1000
1000
1000
1000
1000
1000
999.9961
972.9833
955.917
939.9518
939.9499
939.3826
975.2075
1000
1000
1000
1000
1000
1000
1000
993.0892
981.7108
984.3044
979.6599
993.8448
979.4301
980.3869
999.9799
999.9436
999.9872
999.9638
996.1969
999.9793
999.9996
1000
1000
1000
999.9999
1000
1000
1000
1000
999.9971
999.7644
1000
1000
1000
1000
1000
999.9661
999.8243
1000
999.9912
999.8631
999.6299
1000
1000
1000
1000
1000
1000
1000
1000
999.9511
999.7972
999.986
999.9638
999.9443
998.3105
1000
1000
1000
1000
1000
1000
1000
1000
1000
1000
1000
1000
1000
1000
1000
1000
1000
1000
1000
1000
1000
1000
1000
1000
1000
1000
1000
1000
995.7783
984.8533
999.1744
985.0757
995.9451
984.2258
998.353
1000
1000
1000
1000
1000
1000
1000
1000
1000
1000
1000
1000
1000
1000
1000
1000
1000
1000
1000
1000
1000
887.1107
893.9367
883.5043
907.9635
899.2566
892.9619
888.5168
985.8644
999.9973
999.9985
985.3345
994.4483
964.9432
992.8911
959.2052
990.5624
1000
953.9226
954.3943
953.7822
972.4584
1000
1000
999.9997
999.9999
999.9999
999.9992
999.9999
862.4354
864.8302
866.5956
871.4211
863.92
865.1755
870.7392
1000
1000
1000
1000
1000
999.9999
1000
1000
1000
1000
1000
1000
1000
1000
999.9948
1000
999.9899
1000
999.9966
1000
1000
999.9999
1000
1000
1000
1000
1000
1000
999.9064
997.541
994.4514
997.1548
993.9655
990.1229
1000
998.497
1000
999.9887
1000
1000
1000
999.9996
995.6686
962.1779
994.8818
1000
974.956
986.2675
961.0616
1000
1000
1000
1000
1000
1000
1000
1000
1000
1000
1000
1000
1000
1000
1000
999.7348
1000
999.7238
1000
999.7617
1000
914.1629
972.5332
925.1162
961.2137
916.316
942.9472
947.9502
1000
1000
1000
1000
1000
1000
1000
1000
1000
999.9992
999.9998
1000
999.9999
999.9996
1000
1000
987.1251
1000
1000
999.5677
1000
1000
1000
1000
1000
1000
1000
1000
999.9989
999.9626
999.9573
999.249
998.8664
999.6339
998.5632
999.9999
999.9985
1000
1000
1000
999.9987
999.9983
986.0027
1000
1000
1000
986.3984
1000
999.7589
997.9904
998.7093
989.2508
998.9229
1000
995.6511
997.4831
999.9885
999.9645
999.996
1000
999.9914
994.2881
999.9986
996.4304
1000
994.3351
999.4972
995.113
1000
993.8093
999.7592
992.4272
999.9986
1000
997.2245
1000
988.8667
999.995
1000
999.9848
994.4138
996.6943
999.6852
986.7468
1000
1000
1000
1000
1000
1000
1000
1000
1000
1000
1000
1000
1000
1000
999.9988
999.9957
999.9998
999.9992
999.9983
999.9999
999.9997
881.259
895.6974
885.0139
897.9922
884.6343
886.7265
883.5517
997.8892
976.3012
994.0648
996.3598
999.6309
973.3948
991.6309
1000
1000
1000
1000
1000
1000
1000
999.7311
1000
999.6303
999.5889
993.7911
998.5591
998.2078
999.9257
1000
999.5712
999.8529
999.9661
1000
999.5839
1000
999.9912
1000
997.6994
999.9998
1000
999.5155
1000
1000
1000
1000
1000
997.4934
1000
1000
1000
1000
1000
1000
1000
1000
1000
998.3673
996.8324
999.984
1000
1000
994.2723
999.9478
999.9846
999.9604
999.9444
999.9822
999.9434
999.9269
1000
1000
1000
1000
1000
1000
1000
1000
1000
1000
1000
1000
1000
1000
1000
1000
1000
1000
1000
1000
1000
1000
1000
1000
1000
1000
1000
1000
999.9989
999.993
1000
999.9976
1000
1000
999.9983
999.981
999.9866
1000
999.551
998.5571
999.993
999.6662
1000
1000
1000
999.9732
999.9581
999.9643
999.9902
1000
999.7187
999.7443
1000
1000
999.8906
1000
1000
999.7835
999.7227
999.9545
1000
1000
1000
995.4414
991.249
998.332
1000
988.3405
1000
990.8563
1000
1000
1000
1000
1000
1000
1000
999.955
999.9999
1000
999.9143
999.6372
999.3186
999.9055
999.4822
998.9386
999.7148
999.9997
1000
1000
1000
999.7772
999.8365
999.8545
1000
999.9972
999.924
999.9617
999.9982
999.9805
999.8113
1000
1000
999.9846
999.9137
1000
1000
1000
1000
1000
1000
1000
999.9433
999.961
999.9315
999.9915
999.9994
999.9984
1000
1000
1000
1000
1000
1000
1000
1000
934.2042
975.3174
1000
1000
1000
1000
1000
996.8041
958.3903
1000
981.4761
987.661
964.2163
998.5842
1000
1000
1000
1000
1000
1000
1000
1000
947.66
1000
1000
1000
963.0565
1000
992.6251
1000
1000
984.057
955.9972
974.8801
1000
1000
1000
1000
1000
1000
1000
1000
1000
999.9599
999.9579
1000
999.9952
1000
999.9962
1000
1000
1000
1000
1000
1000
1000
1000
1000
1000
1000
1000
1000
1000
1000
1000
1000
1000
1000
1000
1000
1000
1000
1000
1000
1000
1000
1000
1000
999.7235
1000
989.5847
975.4631
999.5722
999.5903
999.8255
1000
999.9665
994.1535
997.6647
999.6523
990.3646
992.5142
999.946
999.9891
999.6171
978.7671
986.0338
929.7378
1000
1000
1000
1000
1000
1000
1000
997.5748
995.0918
997.9383
1000
999.1613
999.6929
996.6912
999.9975
999.9986
999.9981
999.4827
999.9999
1000
999.9998
999.9814
998.8154
1000
999.9952
1000
1000
1000
1000
999.999
999.9977
1000
1000
999.9989
999.9969
879.1799
877.5053
876.5728
877.364
879.158
876.0288
871.979
1000
1000
999.998
999.9897
1000
1000
999.9925
982.5353
903.9601
967.7924
987.4872
925.9179
907.7482
913.2375
956.1126
950.3769
956.7343
950.6331
956.0589
950.4949
956.6168
898.2012
914.4724
897.0477
922.6358
939.5276
919.7754
915.3463
1000
1000
1000
1000
998.8566
1000
1000
999.9979
999.9987
999.9994
1000
999.9983
1000
1000
1000
999.9994
999.985
999.3964
999.9994
999.9831
999.9377
994.9414
999.2771
1000
1000
999.7422
999.8376
1000
874.6846
872.4768
872.9944
875.0455
871.0517
870.7537
873.7567
955.1927
955.5232
955.156
953.4491
954.2924
954.8831
953.9915
987.5628
999.6039
999.775
999.5323
999.0987
999.9074
999.8859
1000
1000
1000
1000
1000
1000
1000
999.9689
999.9996
999.9985
961.1612
960.9737
969.4271
961.162
894.5135
912.6599
903.7648
898.5128
894.8352
893.3458
889.4043
1000
1000
1000
1000
1000
1000
1000
937.5581
940.1539
938.5625
941.1879
942.5217
940.9724
942.458
937.3075
938.5493
936.8061
941.1903
941.9993
941.1594
942.2652
876.1559
876.1454
876.313
876.1329
879.2461
890.4432
878.4748
880.0155
879.6156
877.2385
903.7906
884.1081
884.0537
883.754
950.9489
954.2292
950.1535
945.2228
950.6845
954.18
950.3539
1000
1000
1000
1000
1000
1000
1000
957.9089
960.1813
958.871
956.6152
958.0214
960.2163
958.6345
1000
999.5705
998.6646
1000
1000
977.1679
934.4529
1000
1000
999.2715
1000
1000
1000
1000
1000
1000
1000
1000
1000
1000
1000
1000
992.168
988.6917
999.7656
999.6428
994.5609
975.7389
1000
1000
1000
1000
1000
1000
1000
999.9758
1000
999.9999
1000
985.1796
999.9839
999.9203
1000
1000
1000
1000
1000
1000
1000
999.8374
993.5433
993.4149
999.3934
999.6544
999.6759
985.5734
1000
1000
1000
1000
1000
1000
1000
999.9302
992.5867
989.1198
1000
999.922
935.3945
933.2556
1000
1000
1000
999.9935
1000
1000
1000
1000
1000
1000
1000
1000
1000
1000
956.763
957.1448
958.0382
957.1836
956.3232
956.7149
957.7696
1000
1000
1000
1000
1000
1000
1000
958.9196
958.0617
951.6738
951.1615
958.5863
957.7587
950.9176
1000
1000
1000
1000
1000
1000
1000
985.3328
999.4994
997.3017
971.3469
995.6562
997.9985
997.4054
936.4116
936.6385
935.8846
940.8429
938.6183
940.371
937.4665
999.9963
999.9846
999.9979
999.9908
980.6179
951.282
960.8686
955.5556
952.1589
954.5461
951.5873
955.2708
951.0968
953.6026
955.4495
956.7721
963.0463
957.5266
954.857
957.1244
961.501
970.7353
884.7492
944.0887
907.0846
895.9983
911.3428
911.8911
984.8752
999.9944
1000
999.9981
995.4263
999.9891
1000
1000
999.9997
999.9998
1000
999.9982
999.991
999.9917
953.599
954.5204
970.7634
959.4196
953.4336
954.2674
970.4676
1000
1000
1000
1000
1000
1000
1000
1000
1000
1000
1000
1000
1000
1000
999.9999
1000
1000
1000
1000
1000
1000
916.0942
894.8289
894.8641
929.9945
924.9871
929.196
924.4147
999.9999
1000
1000
999.9999
999.9999
999.9995
1000
999.9998
1000
999.9998
1000
1000
1000
999.9999
999.9991
999.9982
999.9995
999.999
999.9993
999.9988
999.9996
959.3176
949.7976
958.7531
945.9269
958.9724
948.7002
957.986
999.9999
999.9981
1000
999.9999
999.9999
999.9977
1000
955.1898
985.8206
971.0272
937.0727
934.205
935.0946
938.4804
931.2461
933.3438
930.308
930.0854
934.4343
929.5345
933.2278
969.5368
947.9783
985.4644
959.575
946.6305
984.0961
954.3107
999.9996
1000
999.9999
999.9998
999.9996
1000
999.9998
996.5335
998.6337
999.4866
1000
999.6897
1000
1000
1000
999.7279
1000
1000
1000
1000
998.5379
999.9453
999.8663
999.9624
997.4454
999.9798
999.098
999.8623
998.9343
999.9999
999.7842
999.8973
998.9285
999.9975
999.9666
999.9994
999.8663
1000
1000
999.991
999.8056
1000
999.9738
999.9986
999.5663
999.8968
999.5824
999.9996
1000
999.8731
999.9988
999.9731
999.9805
999.9854
1000
999.9884
975.4102
945.7293
954.6562
945.0549
946.3158
964.0262
961.7595
999.6459
999.9766
999.4464
999.8546
999.9148
999.9024
999.9739
999.6986
984.3872
994.9795
1000
981.7886
1000
985.3527
999.9792
1000
1000
999.9795
999.9742
999.9944
999.9925
999.7552
1000
999.9896
1000
999.9762
999.9612
999.9178
944.8677
921.9888
961.3968
952.008
945.0633
935.9441
998.4889
1000
1000
1000
1000
1000
1000
1000
997.0422
960.7883
934.6352
930.222
934.4678
951.5413
968.1581
999.8146
999.9471
999.9572
999.9267
999.9857
999.9636
999.9455
919.8446
922.0647
917.705
952.0657
952.3853
949.8717
951.3157
1000
1000
1000
1000
1000
1000
1000
999.9991
999.9999
1000
999.9999
999.9995
1000
1000
1000
1000
1000
1000
1000
1000
1000
1000
1000
999.9994
1000
999.9999
1000
999.999
879.7013
891.572
891.3928
894.2239
885.155
895.8558
894.2811
999.9997
999.9999
1000
999.9999
999.9997
999.9999
999.9999
1000
1000
1000
1000
1000
1000
1000
960.5079
978.3153
943.9896
936.1886
949.761
986.8663
1000
999.9321
999.1823
1000
1000
999.9102
999.9999
1000
984.0543
1000
999.82
993.9957
988.4587
1000
999.9268
877.1402
882.4925
884.453
878.8697
872.5599
889.2882
881.623
989.393
979.3868
996.7262
1000
987.667
985.2795
999.8272
999.9998
999.9999
999.9996
1000
1000
999.9998
999.9994
909.3664
922.6505
912.9496
903.6333
951.0066
928.3711
937.7388
939.1333
973.2553
1000
1000
1000
1000
1000
999.9931
999.5225
1000
1000
1000
999.6075
999.9553
1000
1000
1000
1000
1000
1000
1000
881.5179
881.1732
882.4887
883.6016
907.3231
887.4995
886.5611
999.9176
999.8425
999.9928
997.7689
999.7471
999.9992
999.9955
1000
1000
1000
1000
1000
1000
1000
1000
1000
999.9977
1000
1000
999.5041
999.8792
1000
999.4851
972.2159
1000
1000
981.1735
973.8813
1000
1000
1000
1000
1000
1000
1000
999.8664
999.9096
1000
1000
999.816
999.8541
1000
1000
1000
1000
1000
1000
1000
1000
979.3856
990.4194
999.7018
989.4556
990.2036
992.7252
1000
881.6902
879.428
879.8153
886.3091
884.0825
882.698
882.4054
999.8935
999.645
998.4496
1000
999.0384
999.9456
999.8711
999.9913
1000
999.998
999.9941
999.9748
999.95
999.9993
942.773
943.122
947.9574
936.8491
970.2881
941.4926
939.334
999.3471
1000
1000
999.7514
999.8315
999.8985
999.8185
1000
1000
999.9731
966.9421
938.3067
996.8375
949.0794
999.9971
1000
1000
998.0585
999.6569
1000
999.9999
995.27
1000
1000
1000
1000
989.6247
999.9946
1000
999.996
999.9993
999.9942
1000
1000
1000
999.998
1000
999.998
1000
999.9975
999.7008
956.6422
1000
1000
1000
1000
1000
1000
1000
1000
999.9997
1000
999.9216
1000
1000
1000
997.8087
997.4619
1000
999.9979
999.3451
998.537
1000
1000
1000
1000
1000
1000
1000
1000
1000
999.9999
999.9997
1000
999.9999
999.9999
999.9995
999.0748
993.1318
995.9671
1000
999.8751
1000
1000
887.9257
887.7804
883.3558
904.1095
890.616
893.6735
905.1704
963.7373
974.9064
972.9612
932.6552
932.1364
932.0435
933.974
1000
1000
1000
1000
1000
1000
1000
1000
1000
1000
1000
1000
1000
1000
999.9735
999.991
999.9272
1000
999.9879
999.9998
999.9475
964.3476
979.0218
989.8246
1000
1000
1000
1000
1000
1000
1000
1000
1000
1000
1000
946.6432
993.7133
1000
1000
968.327
996.8925
993.7199
876.4634
869.3128
886.3339
873.0753
878.7831
869.6499
890.1064
998.1205
1000
999.949
992.4495
998.7981
997.9542
1000
999.995
999.9408
999.9977
999.9944
999.964
999.9901
999.8812
965.085
980.5305
982.6398
964.6211
965.152
980.0819
983.246
975.2977
966.4968
953.5759
942.7399
996.9869
943.0529
939.9532
999.7687
999.9901
1000
998.6831
999.9827
1000
1000
1000
1000
1000
1000
1000
1000
1000
1000
997.6233
999.5143
999.2497
1000
997.8667
999.2089
999.992
1000
999.6511
999.779
999.9892
1000
999.6853
988.5771
978.3714
961.0698
976.2835
960.8171
960.9586
971.3063
918.3535
918.3533
917.5315
952.8018
954.0009
950.767
951.7326
983.4653
959.1311
939.7943
945.1575
965.5673
957.2699
965.9201
916.8186
918.0541
920.4705
915.1536
937.0426
909.1731
907.0557
999.9749
999.9456
999.9384
999.9958
998.1047
999.9926
987.236
1000
1000
1000
1000
1000
1000
1000
1000
1000
1000
1000
1000
1000
1000
1000
1000
1000
999.9997
999.9905
999.9981
999.9997
1000
996.8027
1000
999.2453
1000
991.4407
997.9103
999.9999
1000
999.9998
1000
999.9999
1000
1000
1000
1000
999.9987
999.8676
1000
1000
999.9992
999.9871
999.9997
999.9991
999.9986
999.9868
999.9997
999.9997
940.7523
991.1788
980.1569
970.9702
942.7754
1000
991.9972
979.5147
984.5473
985.8077
953.1971
958.4373
962.0836
958.6237
999.9986
999.8453
1000
999.6467
999.5681
1000
999.7734
995.5268
993.9495
988.0714
991.984
996.7738
997.6019
999.9331
999.9871
999.9999
999.9998
999.9972
999.9858
1000
1000
977.5846
987.0325
982.3271
956.7819
967.8155
971.1627
936.3243
964.1628
961.6341
962.786
961.7141
964.9409
962.0162
963.1049
906.4685
906.8883
906.6834
956.9062
953.9575
957.7596
953.6529
1000
1000
1000
1000
1000
1000
1000
980.396
985.5014
987.9259
963.914
954.933
965.5223
962.4492
895.0104
883.9196
884.0491
901.4353
931.5518
898.681
898.5435
953.2863
967.861
933.3824
999.6727
971.8776
1000
967.5155
1000
1000
1000
1000
1000
1000
1000
1000
1000
1000
1000
1000
1000
1000
996.9691
999.9206
1000
977.9317
999.9995
1000
1000
991.9674
996.169
996.6192
945.0477
1000
988.3645
969.9473
999.9999
999.9999
1000
1000
1000
1000
1000
1000
1000
1000
1000
1000
1000
1000
999.9997
999.9999
1000
999.9973
999.9998
999.9883
999.9999
1000
998.6428
948.4844
933.6328
968.8167
1000
957.6309
1000
999.7463
999.9983
1000
1000
999.1062
999.9223
991.4976
998.0623
999.091
1000
1000
1000
1000
981.9307
982.2368
983.1549
957.441
954.7088
974.4956
970.1181
946.7134
957.0611
954.8903
1000
952.2081
977.1674
941.6934
1000
999.2574
998.1418
1000
999.8374
999.6318
998.3345
1000
1000
1000
1000
1000
1000
1000
998.6008
999.3533
1000
999.0862
998.3993
996.9825
1000
981.8948
964.5324
995.7915
998.0313
937.3157
991.6561
999.9007
975.4684
1000
988.4604
969.3164
998.5797
1000
984.7718
998.1806
995.765
987.3479
967.6435
999.6644
973.54
956.2207
997.0636
1000
997.2185
966.8796
987.8438
956.5571
1000
993.4708
989.9237
993.4718
990.2175
974.6854
1000
988.2154
984.8034
998.0632
991.5554
969.3713
969.4207
971.81
997.9486
998.5215
993.8049
1000
972.0464
1000
967.3103
979.6161
994.6103
1000
999.9255
976.6838
970.0404
985.3662
974.5766
999.756
999.3306
999.9953
978.7428
981.9408
977.6141
962.8458
994.0415
993.5741
995.9114
989.2095
969.7612
989.2079
946.8304
985.0942
991.4381
998.9943
969.0699
958.7893
959.1851
959.3007
996.8939
1000
999.2737
959.3012
962.0351
962.6812
959.8048
1000
1000
1000
1000
1000
1000
1000
1000
1000
999.9999
1000
1000
1000
999.9999
1000
999.9993
1000
999.988
1000
999.9985
1000
1000
1000
1000
1000
1000
1000
1000
1000
999.9998
1000
999.9999
999.998
999.9997
999.9915
1000
1000
1000
1000
1000
1000
1000
1000
1000
999.9999
1000
1000
1000
999.9995
1000
1000
1000
1000
1000
1000
1000
1000
1000
1000
1000
1000
1000
1000
957.934
971.2412
990.4667
952.7887
990.9263
968.8127
999.8621
966.5313
968.7878
988.6014
973.397
969.111
983.5768
984.5554
981.4738
983.1369
982.5872
967.7753
972.7278
972.2043
972.5925
981.1837
980.8541
983.9489
951.1274
982.8952
940.7389
948.957
999.9998
1000
999.9998
1000
999.9998
1000
1000
870.2029
862.4516
867.3736
867.0895
873.2514
864.469
871.0331
1000
956.5431
1000
1000
1000
953.1052
963.3529
874.2727
878.9337
876.0973
880.3582
877.316
883.5891
879.832
1000
1000
1000
1000
1000
1000
1000
1000
1000
1000
1000
1000
1000
1000
1000
1000
999.9999
1000
1000
1000
999.9998
1000
1000
999.9945
999.9986
1000
999.9993
1000
939.4971
946.6859
959.3897
960.8211
942.4726
946.6482
971.4326
1000
1000
1000
1000
1000
1000
1000
1000
1000
1000
1000
1000
1000
1000
1000
1000
1000
1000
1000
1000
1000
999.9355
999.9958
999.9981
999.9899
999.9196
999.9963
999.9989
998.8511
999.9958
999.9702
999.6799
999.1607
999.3339
999.9359
1000
997.5191
1000
1000
1000
997.3139
1000
1000
1000
1000
1000
1000
1000
1000
913.7068
970.6283
942.6263
919.1467
915.578
931.3863
922.0235
999.9104
1000
999.9996
999.9922
1000
999.9044
999.9807
999.9978
1000
999.9981
999.9948
999.9999
999.9999
999.9998
999.9995
1000
998.3002
1000
999.8503
999.9104
1000
998.4146
999.9963
999.3227
999.9706
999.0415
999.6185
999.5498
881.1713
881.5671
882.3794
881.7877
888.4332
888.2949
882.7598
503.4204
503.4298
851.6956
503.4289
988.2443
951.0478
1000
999.9848
999.9834
999.9985
999.9763
999.9977
999.9971
999.9957
935.225
951.1009
994.0119
888.2958
966.4448
953.894
981.1608
994.6471
1000
1000
994.9715
999.9756
1000
1000
1000
1000
1000
1000
1000
1000
1000
990.2866
1000
1000
1000
999.9408
1000
999.9495
1000
1000
999.4438
994.1354
1000
1000
999.3511
999.9971
999.9995
1000
999.9993
1000
1000
1000
1000
1000
1000
1000
1000
1000
1000
1000
999.6883
999.7044
1000
1000
1000
999.97
999.9909
999.9815
999.981
999.9916
999.9982
999.9873
999.9957
902.7415
901.1206
900.9817
929.5928
937.2547
913.0116
901.121
1000
977.1865
1000
1000
989.5555
974.0914
987.8993
870.4115
867.5011
868.0518
869.745
871.6553
868.7308
868.3787
996.7436
1000
1000
1000
1000
1000
1000
1000
1000
1000
1000
1000
1000
1000
864.7617
866.1172
866.7475
863.8956
863.757
864.6858
867.2272
1000
1000
1000
1000
1000
1000
1000
993.7841
999.7813
969.4481
993.643
967.0507
1000
950.663
973.9211
901.8337
904.0165
901.9159
992.731
946.4598
999.9944
999.985
999.9995
999.999
999.9995
999.9832
1000
999.9964
1000
999.9992
999.9946
1000
1000
999.9999
1000
999.6539
999.9653
999.8596
999.9941
1000
999.9708
1000
1000
1000
1000
1000
1000
999.9997
1000
1000
999.9963
1000
1000
999.9252
999.9964
999.9992
1000
999.9999
1000
1000
1000
1000
1000
993.2832
973.5173
1000
966.1915
982.7247
939.9884
1000
999.7672
1000
986.3988
982.9401
994.2799
991.4064
1000
961.5916
976.1962
968.3135
967.854
959.1452
969.3927
959.8246
914.3712
906.9162
907.1941
954.0187
950.837
953.7441
953.849
1000
1000
1000
1000
1000
1000
1000
995.8712
986.0487
1000
991.7436
995.4009
981.7747
1000
999.5895
999.9508
999.9658
1000
999.8336
999.9952
999.9743
999.3793
998.9257
1000
999.9983
1000
1000
999.8344
1000
1000
1000
1000
1000
1000
1000
997.5302
1000
999.8007
999.3093
999.8408
999.9711
999.9942
999.9959
999.9986
1000
999.9853
999.9315
999.987
1000
1000
1000
1000
1000
1000
1000
1000
968.1727
972.6307
953.8941
1000
1000
970.3148
1000
995.5841
986.1619
1000
999.8957
996.9982
979.3206
1000
990.4866
999.9507
1000
999.6757
1000
1000
1000
1000
1000
1000
1000
1000
1000
1000
968.015
966.1566
970.6479
961.9031
966.3005
968.0902
970.6289
905.8085
900.2916
884.7446
936.331
937.935
953.606
949.0061
894.8661
895.7149
894.831
946.4501
956.0424
945.9578
956.9967
999.9135
998.7468
1000
988.6356
1000
998.1521
1000
880.3795
880.1877
883.6288
934.4282
883.4632
880.538
897.0807
1000
999.9992
1000
1000
999.9999
999.9998
999.9991
862.4321
863.7616
865.7137
865.7442
862.9248
864.2813
866.3653
1000
1000
1000
1000
1000
1000
1000
962.9642
980.4381
973.1248
963.093
965.8726
986.9281
973.6006
918.963
918.3521
953.2502
953.3324
952.8268
949.0203
951.6348
1000
1000
1000
1000
1000
1000
1000
1000
1000
1000
1000
1000
1000
1000
1000
1000
1000
1000
1000
1000
1000
1000
1000
1000
1000
1000
1000
1000
925.1032
913.5514
916.264
911.5185
919.4384
908.6553
906.7807
999.9999
1000
999.9998
999.9994
1000
1000
1000
999.989
999.9919
999.9503
1000
999.4387
999.7702
999.9574
1000
1000
1000
1000
1000
1000
1000
1000
999.998
999.9499
999.2242
1000
999.9768
999.4913
1000
970.0325
950.4695
951.8349
979.8872
951.9009
952.2371
1000
1000
1000
1000
1000
1000
1000
965.4139
987.4789
993.4052
964.9202
989.6485
1000
942.9181
999.9944
1000
970.4604
972.4088
978.3587
959.3961
1000
999.9996
999.9747
999.9979
999.9985
999.9954
999.9748
999.998
970.969
986.3936
999.9489
964.5276
976.0058
979.5192
999.9265
1000
1000
1000
1000
1000
1000
1000
1000
1000
1000
1000
1000
1000
1000
999.9981
999.9994
999.9993
999.9992
1000
1000
999.9995
999.4564
995.5919
1000
998.4757
999.9991
995.571
1000
999.8032
951.7019
989.2025
953.2089
984.2189
950.801
948.1509
1000
1000
1000
1000
1000
1000
1000
1000
1000
1000
1000
1000
1000
1000
987.203
983.8114
999.845
961.25
982.1766
978.6852
999.8286
1000
1000
1000
1000
1000
1000
1000
1000
1000
1000
1000
1000
1000
1000
996.658
997.6788
982.7127
1000
996.5485
994.4526
982.7182
879.2342
874.0657
900.5859
885.5967
875.7968
873.4811
893.2789
1000
1000
1000
951.0727
941.0666
967.201
970.6721
879.2959
881.1827
881.983
882.7376
881.38
886.0101
886.2909
1000
1000
1000
1000
1000
1000
1000
994.0748
987.0652
999.4499
939.3034
999.1856
997.9881
999.948
999.8435
999.9926
999.9837
1000
1000
999.9491
1000
997.9361
999.882
999.9932
999.4173
998.2187
998.8125
998.9423
999.9967
1000
999.9473
999.9908
999.9965
1000
999.9572
1000
1000
1000
1000
1000
1000
1000
1000
1000
1000
1000
1000
1000
999.9991
868.5174
878.2186
867.8796
866.7546
871.1066
884.9057
869.8064
999.7123
1000
999.9994
999.9893
999.7608
1000
999.9999
1000
1000
1000
1000
1000
1000
1000
885.2448
874.4308
889.786
884.4664
883.7541
893.1068
893.4681
1000
1000
1000
1000
1000
1000
1000
1000
1000
1000
1000
1000
1000
1000
1000
1000
1000
1000
1000
1000
1000
1000
999.9974
999.947
961.0013
960.7974
960.7373
960.564
1000
1000
1000
1000
1000
1000
1000
882.0513
880.612
887.9022
901.4808
884.9886
883.5158
885.7295
1000
999.9999
999.9996
1000
1000
999.9999
1000
927.5834
924.5653
924.4302
939.0895
939.7203
947.3816
950.6898
1000
1000
1000
1000
1000
1000
1000
1000
1000
1000
1000
1000
1000
1000
999.9931
999.9994
1000
1000
999.9952
999.9981
999.9968
916.1797
926.246
925.6481
925.4949
924.3434
925.6427
924.186
998.0233
984.5825
983.8908
1000
1000
996.0509
1000
1000
971.3816
958.1389
975.0617
999.1805
958.8052
959.0671
949.0966
965.6825
999.7097
961.4128
971.2534
993.8953
979.1407
1000
1000
1000
1000
1000
1000
1000
1000
1000
1000
1000
1000
1000
1000
1000
1000
976.3543
985.8092
999.6168
985.1237
1000
997.7295
984.5083
1000
1000
999.96
1000
999.9587
987.4773
997.1195
1000
994.8581
985.4795
1000
996.6146
1000
1000
1000
1000
1000
1000
1000
1000
1000
1000
999.9998
1000
999.9999
999.9999
1000
1000
1000
1000
1000
1000
1000
939.6014
921.3239
943.629
906.5142
926.8935
908.9084
905.1287
1000
1000
1000
1000
1000
1000
1000
1000
1000
1000
1000
1000
1000
1000
1000
1000
1000
1000
1000
1000
1000
1000
1000
1000
1000
1000
1000
1000
1000
967.6732
991.8574
931.0443
974.2094
992.9304
1000
994.2304
975.6565
1000
950.4712
993.337
977.1452
1000
999.9976
999.9997
999.9955
1000
999.9982
1000
999.9962
867.9191
874.1852
875.1486
873.731
870.2712
875.2128
877.0881
1000
1000
1000
1000
1000
1000