/*--------------------------------*- C++ -*----------------------------------*\
| =========                 |                                                 |
| \\      /  F ield         | OpenFOAM: The Open Source CFD Toolbox           |
|  \\    /   O peration     | Version:  1912                                  |
|   \\  /    A nd           | Website:  www.openfoam.com                      |
|    \\/     M anipulation  |                                                 |
\*---------------------------------------------------------------------------*/
FoamFile
{
    version     2.0;
    format      ascii;
    class       volScalarField;
    location    "40000/fluid";
    object      T.gas;
}
// * * * * * * * * * * * * * * * * * * * * * * * * * * * * * * * * * * * * * //

dimensions      [0 0 0 1 0 0 0];


internalField   nonuniform List<scalar> 
4960
(
384.9997
385.001
407.8276
385.0002
385.2515
385.0021
384.9992
385.1551
386.3538
432.0011
384.9998
386.6299
384.9998
385.0016
385.1729
385.0898
385.1281
384.9996
384.9999
385.1527
385.1172
384.9993
385
384.999
385.1389
384.9999
385.0963
385.0004
385.169
385.011
385.5832
385.1917
385.1806
385.031
385.0216
385
385.0151
385.0013
385.01
384.999
385.0003
384.9997
384.9996
385.0731
385.2493
385.009
384.9999
385.2889
384.9999
385.1463
385.018
387.1187
385.7423
385.0008
384.9998
385.0166
384.9998
424.753
385
406.3922
385.0364
385.0025
385
385
387.5894
385.0153
385.2703
385.0019
386.5618
385.0014
384.9998
396.4137
409.8151
385.0042
385.0072
385.0638
385.0017
384.9999
385.0005
386.1876
384.9996
384.9998
385.0579
385
385.0088
385.0737
385.0187
385.0062
385.0179
385.0044
385.0059
385.0067
384.9997
385
385.866
386.6363
385.0116
385
385.0058
384.9989
385.0041
385.0052
385.0007
385.0049
385.0028
385
384.9997
385
384.9997
385.0012
385.0023
385.5349
385.0307
385.0037
385.0124
432.003
385.003
385.0027
385.0031
384.9988
384.9995
387.9364
385.0011
385.1215
385.0281
384.9999
385.1389
385.0242
385.003
385.1477
385.0024
385
385
385
385.0088
385.005
385.0342
385
385.0046
385.0055
385.0014
384.9989
386.6968
385.0083
386.1235
385.3399
386.2412
385.0058
385.0001
385.0353
385.0145
386.6196
385.2429
385.0361
384.9998
385.0608
387.6419
385.1759
385.5385
385.5918
387.3193
387.2594
385.3491
384.9999
385.2201
385.3581
385.003
384.9999
385.3752
392.4053
385.0609
384.9999
385.3837
384.9997
385.3949
384.9988
384.9999
385.2457
385
385.3336
385
385.1715
385.6295
385.0577
385.262
385.2028
387.2025
385.0229
385.0001
385.2102
385
384.9993
384.9995
385.8096
384.9997
384.9991
385.0002
385.3346
385.0007
385.4071
385.6722
385.1899
385.0012
385.0023
385.0024
385.0021
384.999
384.999
384.9989
385.0069
385.1509
385.0006
385.0143
385.0041
384.9989
385.8368
384.9999
385.0419
385.0025
386.0291
384.9997
385
384.9996
384.9997
387.4753
385.0022
432.0013
385.424
385.0004
385.0378
386.7034
385.0794
416.0067
386.5622
385.0513
385.0038
385
387.1019
385.0031
385
385.4352
385.0879
384.9998
385.005
385
385.0236
386.7485
388.755
385.063
385.534
385.246
385.0298
385.0018
385.0075
385.0022
385.4392
384.9996
384.9993
385.0004
384.9995
385
385.0176
386.6086
386.0311
432.0015
384.9997
385.0007
385.0387
385
385.3626
386.6592
385.0234
384.9995
385.1617
385.4564
385.0048
384.9995
385.0011
384.9999
385.1328
385.7654
385.6367
386.3754
385.0081
385.0013
384.9997
384.999
385.0769
384.9991
385.0006
384.999
385.3231
385.5471
385.002
385.2495
384.9997
385.5565
385.2007
386.413
384.9997
385.5212
386.9117
385.4642
384.9999
385
385.1353
385.5728
384.999
385
385.0015
385.703
385.0057
386.1478
385.5015
385.255
385.0032
384.9994
385.0014
385.0177
385.679
385.6606
385.8261
385.8431
385.668
385.7657
385.8415
385.6724
385.8568
385.8729
385.8812
385
384.9991
385.0105
385
384.9997
384.9995
384.9994
384.9995
384.9993
385.1365
385.1601
385.8679
385.8943
385
386.5884
385.3677
386.5988
384.9993
384.9991
388.3802
404.6724
385.3878
385.0012
385.8973
385
384.9992
384.9996
385.013
384.9999
385.6187
385.0015
384.9988
385.0195
385.0011
387.0585
385.1602
384.9995
386.3334
385.1746
384.9999
385.0608
385.0132
384.9988
384.9999
385.0008
385.0034
386.2872
385.0612
386.6289
385.1305
402.4131
386.6214
385.0007
385.4688
386.0751
384.9988
384.9988
384.9997
384.9989
384.9998
384.9992
385.115
385.6258
385.1874
386.3037
384.9993
385.0243
384.9995
385.0326
385
385.0243
384.9988
384.9992
385.0918
385.0229
385.0654
385
385.1939
386.6185
386.5155
385.0252
386.7691
384.9993
386.6
385
385.1735
385.7054
384.9999
384.9993
385
384.9996
386.3477
385.1675
384.9998
384.9996
385.0006
385.3423
427.9055
385.5335
385.0332
384.9988
385.1226
385
384.9993
385.0001
385.0226
385.1382
384.9996
384.9995
385.0815
431.9597
384.9991
385.0757
386.4752
385.0548
386.6261
384.9994
385.0895
394.694
385.0012
385.0004
385
384.9999
386.6397
384.9995
385
387.3204
432.0004
385
385
385.1215
385
386.6368
385.0024
385.7003
386.3261
384.999
385
386.9391
385.0099
385.4792
385.1232
384.9997
384.9997
385.1127
385.0497
385.0153
384.9996
385.0346
385
386.2228
384.9997
384.9998
384.9999
384.9998
385.3992
385.1683
385.003
386.5859
385
432.0002
430.742
385.4028
431.023
384.9992
386.3689
385.6614
384.9998
385.9615
385.1115
384.9997
385.381
386.6621
385.4835
385.4027
425.0171
385.0538
385
385.965
432.0019
385.0107
384.9999
385.4345
384.9996
385.4367
384.9998
386.9129
385.583
386.232
384.9994
384.9989
385.4442
431.7569
385.7021
385.3204
385.1806
384.9999
385.1291
384.999
384.999
385.0021
384.9994
384.9998
386.6511
386.332
422.0104
385.0028
385.0001
385.0678
432.0001
384.9989
385.4547
386.6835
384.9997
385.311
385.8064
385.3493
385.445
384.9996
386.8622
385.1528
385.2068
385.0888
385
385
384.9994
385.0031
385.1236
385.0849
385.0011
385
385
385.0441
385.3449
385.0371
385.0494
385
384.9992
384.9993
384.9999
384.9994
385.2422
385.1766
426.2026
385.5333
385.0003
399.9958
386.3312
384.9992
385.1872
385.0614
384.9988
384.9996
385.0039
386.4705
385
385
386.3976
432.0001
384.9991
384.9993
385.0024
385.3835
384.9998
386.3051
386.6357
385.3067
385.1474
385.2506
384.9999
385
384.9995
387.307
385.2129
385
399.2755
384.9996
385.176
384.9999
385.1431
385.1145
385.1933
385.1954
385.0025
385.3427
386.7155
385.4861
384.9997
385
432
384.9997
384.9997
384.9997
384.9997
384.9997
384.9997
384.9997
385.0012
385.001
385.0013
385.0011
385.0012
385.001
385.0013
410.3477
415.6259
402.6525
407.8467
410.36
415.6399
402.6671
385.0003
385.0002
385.0003
385.0003
385.0002
385.0003
385.0002
385.153
385.1553
385.2526
385.3712
385.24
385.2417
385.3753
385.0008
385.002
385.0007
385.0024
385.0009
385.0022
385.0008
384.9991
384.999
384.999
384.9992
384.9992
384.999
384.999
385.2627
385.2073
385.2012
385.2861
385.4312
385.3618
385.3359
386.0501
385.5754
387.3374
386.36
386.0579
385.5797
387.3558
432.0019
432.0012
432.0018
432.0011
432.0019
432.0012
432.0018
384.9999
384.9999
384.9998
384.9997
384.9998
384.9998
384.9997
386.575
386.6306
386.5662
386.6836
386.5934
386.6781
386.5886
384.9998
384.9998
384.9998
384.9998
384.9998
384.9998
384.9998
385.0015
385.0069
385.006
385.0013
385.0013
385.0061
385.0056
385.102
385.1962
385.0905
385.2134
385.1256
385.2441
385.1017
385.0523
385.0479
385.0971
385.1405
385.0816
385.072
385.1554
385.0558
385.0615
385.1086
385.1726
385.0867
385.0924
385.1592
384.9996
384.9995
384.9995
384.9996
384.9996
384.9995
384.9995
384.9998
384.9998
384.9998
384.9999
384.9998
384.9998
384.9998
385.2232
385.2178
385.1565
385.2143
385.3082
385.3195
385.2142
385.1296
385.2082
385.2184
385.1075
385.1164
385.1966
385.2012
384.9994
384.9993
384.9993
384.9993
384.9994
384.9993
384.9993
385
385
385
385
385
385
385
384.9991
384.9991
384.999
384.999
384.9991
384.9991
384.999
385.0804
385.0737
385.1488
385.2038
385.1226
385.1052
385.2171
384.9999
384.9999
384.9999
384.9999
384.9999
384.9999
384.9999
385.0677
385.1075
385.1396
385.1631
385.1142
385.1938
385.2335
385.0006
385.0004
385.0006
385.0005
385.0007
385.0005
385.0007
385.087
385.0946
385.1587
385.2505
385.1334
385.1461
385.2332
385.0185
385.0256
385.0153
385.017
385.0284
385.041
385.0244
385.4323
385.5863
385.4454
385.7455
385.5202
385.7347
385.5632
385.1486
385.1794
385.1485
385.2151
385.1723
385.2009
385.1792
385.1017
385.111
385.1943
385.2694
385.1598
385.1746
385.2897
385.0434
385.0619
385.0443
385.0529
385.0737
385.1037
385.0751
385.0155
385.0304
385.0384
385.0322
385.0208
385.0396
385.0595
385
385
385
385
385
385
385
385.003
385.0077
385.003
385.0148
385.003
385.0076
385.0029
385.0017
385.0056
385.0076
385.0008
385.0013
385.0045
385.0066
385.0145
385.0191
385.0259
385.0167
385.0245
385.0324
385.0461
384.9992
384.999
384.9991
384.999
384.9992
384.999
384.9991
385.0002
385.0001
385.0004
385.0003
385.0002
385.0001
385.0003
384.9996
384.9997
384.9996
384.9997
384.9996
384.9996
384.9995
384.9995
384.9996
384.9995
384.9996
384.9995
384.9996
384.9995
385.0803
385.1657
385.1513
385.0556
385.0615
385.1293
385.1177
385.1195
385.2211
385.1387
385.3072
385.1673
385.2773
385.1805
385.015
385.0236
385.0326
385.0065
385.0113
385.0182
385.0252
384.9999
384.9999
384.9999
384.9999
384.9999
384.9999
384.9999
385.1637
385.2555
385.1991
385.4267
385.2428
385.3813
385.3128
384.9999
384.9999
384.9999
384.9999
384.9999
384.9999
384.9999
385.0746
385.0831
385.122
385.1785
385.0806
385.089
385.143
385.0268
385.0271
385.0168
385.0309
385.0459
385.0472
385.0288
388.3761
395.3735
397.9459
387.1153
388.3734
395.3673
397.944
385.1357
385.2924
385.3669
385.7325
385.1462
385.2958
385.3803
385.0007
385.0006
385.0007
385.0009
385.0007
385.0006
385.0008
384.9998
384.9998
384.9998
384.9998
384.9998
384.9998
384.9998
385.0434
385.0982
385.0344
385.0189
385.0475
385.0996
385.0356
384.9997
384.9998
384.9997
384.9998
384.9997
384.9998
384.9997
414.8483
420.6171
426.5837
424.7535
414.8499
420.6197
426.5846
385
385
385
385
385
385
385
419.5276
422.513
410.7724
406.3884
419.525
422.5125
410.7722
385.0635
385.0573
385.0393
385.0405
385.0698
385.0631
385.0439
385.0021
385.0022
385.0026
385.0025
385.0021
385.0022
385.0026
385
385
385
385
385
385
385
385
385
385
385
385
385
385
387.8704
387.0993
387.4304
386.4076
386.4341
386.4753
386.5011
385.0263
385.0264
385.0158
385.0262
385.0446
385.0445
385.0271
385.2543
385.1569
385.159
385.3139
385.279
385.1976
385.1988
385.0015
385.0015
385.0018
385.0018
385.0015
385.0015
385.0018
386.6114
386.6052
386.5777
386.5738
386.618
386.6097
386.5894
385.0018
385.0018
385.0015
385.0014
385.0018
385.0018
385.0015
384.9998
384.9999
384.9998
384.9998
384.9998
384.9999
384.9998
389.562
393.4268
390.8576
396.4356
389.5777
393.4491
390.8738
405.2029
417.1079
411.5046
409.8182
405.2086
417.1126
411.5128
385.0072
385.0128
385.0084
385.0058
385.0104
385.0188
385.0117
385.0084
385.0126
385.0115
385.0121
385.0141
385.0215
385.0196
385.0606
385.1013
385.0973
385.1094
385.1049
385.173
385.1658
385.002
385.0017
385.002
385.0024
385.002
385.0024
385.002
384.9999
384.9999
384.9999
384.9999
384.9999
384.9999
384.9999
384.9996
384.9992
385.002
385
384.9994
384.999
385.0011
386.3711
385.9565
386.0404
386.0651
386.3259
386.0067
386.1323
384.9995
384.9995
384.9996
384.9996
384.9995
384.9995
384.9996
384.9998
384.9999
384.9999
384.9998
384.9998
384.9998
384.9999
385.0587
385.0867
385.0834
385.0968
385.0971
385.1437
385.1358
385
385
385
384.9999
385
384.9999
385
385.0172
385.0521
385.0248
385.0095
385.0174
385.0524
385.0254
385.366
385.5722
385.0622
385.0734
385.3639
385.5696
385.0619
385.0204
385.0299
385.0289
385.0312
385.0346
385.052
385.0492
385.0063
385.0133
385.0143
385.0102
385.0107
385.0219
385.0238
385.0282
385.027
385.0168
385.0296
385.0477
385.0444
385.0272
385.0093
385.0101
385.0185
385.0048
385.0099
385.0121
385.0224
385.0047
385.0095
385.0077
385.0095
385.0073
385.0153
385.0126
385.0042
385.0054
385.0081
385.0111
385.0068
385.0088
385.0136
384.9997
384.9998
384.9998
384.9997
384.9997
384.9998
384.9998
385
385
385
385
385
385
385
385.1817
385.4216
386.1492
385.864
385.1812
385.4213
386.1483
386.5956
386.6378
386.5907
386.6792
386.6181
386.6802
386.6118
385.018
385.0469
385.0357
385.0106
385.0159
385.0431
385.0338
385
385
385
385
385
385
385
385.0061
385.0078
385.0123
385.0074
385.0091
385.0103
385.0135
384.9989
384.9994
384.9993
384.9989
384.9988
384.9992
384.9991
385.0035
385.0055
385.0065
385.0061
385.005
385.0085
385.0104
385.0062
385.0092
385.0104
385.0086
385.0104
385.0157
385.0177
385.0009
385.0007
385.0009
385.0011
385.0009
385.0011
385.0008
385.0046
385.0078
385.0066
385.0076
385.0066
385.0124
385.0104
385.0033
385.014
385.0071
385.0028
385.0033
385.0139
385.0071
385
385
385
385
385
385
385
384.9997
384.9997
384.9997
384.9996
384.9996
384.9996
384.9996
385.0001
385
385.0001
385
385.0001
385
385.0001
384.9997
384.9997
384.9997
384.9996
384.9996
384.9996
384.9996
385.001
385.0012
385.001
385.0012
385.0009
385.0012
385.0009
385.0027
385.0023
385.0026
385.0027
385.0035
385.0026
385.0033
385.2832
386.2487
385.7145
385.5364
385.285
386.2535
385.7175
385.0272
385.0469
385.0413
385.0452
385.0409
385.0709
385.0599
385.0036
385.0046
385.0068
385.0052
385.0042
385.0058
385.0073
385.0105
385.0198
385.0171
385.0195
385.0167
385.0298
385.0273
432.003
416.3331
403.5958
432.003
416.3239
403.5823
432.003
385.0022
385.0022
385.0027
385.0043
385.0028
385.0027
385.0037
385.0033
385.0022
385.0018
385.0039
385.005
385.003
385.0022
385.0047
385.004
385.003
385.0043
385.0071
385.0059
385.0039
384.9988
384.9989
384.999
384.9988
384.9987
384.9988
384.9989
384.9996
384.9996
384.9995
384.9995
384.9996
384.9996
384.9995
386.8141
390.788
388.7942
387.9568
386.8277
390.8132
388.8184
385.0014
385.0011
385.0014
385.0013
385.0016
385.0013
385.0016
385.2088
385.2234
385.1281
385.1805
385.3053
385.3246
385.2021
385.0388
385.0455
385.0533
385.043
385.0624
385.0705
385.0852
384.9999
384.9999
384.9999
384.9999
384.9998
384.9999
384.9998
385.1471
385.2237
385.2295
385.1221
385.1276
385.2021
385.2078
385.0207
385.0335
385.0367
385.0378
385.0325
385.0529
385.057
385.0339
385.003
385.0937
385.003
385.0331
385.003
385.0911
385.3901
385.2018
385.0729
385.1491
385.3919
385.2035
385.0741
385.5507
385.0024
385.5218
385.0028
385.2281
385.0028
385.2199
385
385
385
385
385
385
385
385
385
385
385
385
385
385
385
385
385
385
385
385
385
385.0146
385.0082
385.0125
385.0141
385.0232
385.0125
385.0197
385.0026
385.0041
385.0078
385.0083
385.0043
385.0069
385.0133
385.038
385.0511
385.0553
385.0548
385.0609
385.0803
385.0874
385
385
385
385
385
385
385
385.0027
385.0054
385.0033
385.0075
385.0042
385.0089
385.0052
385.0024
385.0049
385.0081
385.0084
385.0038
385.0078
385.0128
385.0001
385.002
385.0048
385.0015
385.0002
385.0025
385.0059
384.999
384.9989
384.9988
384.9989
384.999
384.9989
384.9988
386.6593
386.6363
386.6749
386.7013
386.6615
386.6337
386.6753
385.0096
385.0032
385.0006
385.0006
385.0033
385.0005
385.0006
385.9237
386.1346
386.3356
386.0415
385.8118
385.9997
386.2417
385.2629
385.3429
385.2532
385.3489
385.2675
385.3509
385.2572
386.4406
386.2403
386.4157
386.1611
386.3655
386.1952
386.3556
385.0063
385.0121
385.0103
385.0095
385.0103
385.0198
385.0166
385.0001
385
385.0001
385.0001
385.0001
385
385.0001
385.0777
385.2223
385.1073
385.0353
385.0778
385.2229
385.1081
385.0228
385.0262
385.017
385.0233
385.0357
385.0418
385.0276
386.6555
386.6399
386.608
386.6181
386.6561
386.6424
386.6093
385.2177
385.2176
385.2352
385.2488
385.2245
385.2212
385.2391
385.0234
385.0268
385.0192
385.0433
385.0359
385.0368
385.0268
384.9998
384.9998
384.9999
384.9998
384.9998
384.9998
384.9999
385.0957
385.061
385.0941
385.1044
385.1621
385.104
385.1583
387.8323
387.4461
387.6521
386.4282
386.435
386.471
386.487
385.1233
385.1803
385.2602
385.1692
385.1191
385.2088
385.2828
385.5569
385.5816
385.5965
385.4808
385.4904
385.4886
385.4976
385.6178
385.6067
385.6328
385.4886
385.4847
385.5021
385.4968
387.4144
387.2981
387.4104
386.7407
386.7535
386.8257
386.8354
387.2774
387.383
387.3962
386.7779
386.7639
386.8555
386.8432
385.2693
385.2799
385.3472
385.3596
385.2811
385.2841
385.3554
384.9999
384.9999
384.9999
384.9999
384.9999
384.9999
384.9999
385.2121
385.2107
385.218
385.2222
385.2145
385.2132
385.22
385.3691
385.4449
385.4591
385.1842
385.1991
385.2611
385.28
385.0017
385.0038
385.0022
385.0049
385.0026
385.0062
385.0034
384.9999
384.9999
384.9999
384.9999
384.9999
384.9999
384.9999
385.3795
385.4738
385.4876
385.2295
385.2268
385.3142
385.2968
402.6641
386.98
391.7788
392.3967
402.6528
386.9753
391.7685
385.0918
385.061
385.083
385.1041
385.1544
385.1034
385.1447
384.9999
384.9999
384.9999
384.9999
384.9999
384.9999
384.9999
385.3886
385.4989
385.5094
385.2399
385.2495
385.3337
385.3455
384.9997
384.9998
384.9998
384.9997
384.9997
384.9998
384.9998
385.4019
385.5207
385.532
385.2686
385.2593
385.3769
385.3609
384.9989
384.9988
384.9988
384.9988
384.9989
384.9988
384.9988
384.9999
384.9999
384.9999
384.9999
384.9999
384.9999
384.9999
385.2466
385.2311
385.2302
385.2486
385.2501
385.2333
385.2323
385
385
385
385
385
385
385
385.2368
385.2438
385.3274
385.3423
385.2404
385.2478
385.3355
385
385
385
385
385
385
385
385.0437
385.0231
385.0103
385.1846
385.0529
385.0266
385.0117
385.645
385.6474
385.6638
385.497
385.513
385.511
385.5274
385.0869
385.0869
385.0574
385.0953
385.1423
385.1421
385.093
385.2698
385.2462
385.2637
385.2738
385.2754
385.2594
385.2711
385.2246
385.2104
385.188
385.2043
385.2262
385.2126
385.1909
387.2341
387.3135
387.3566
386.779
386.7762
386.8559
386.8485
385.0572
385.0664
385.0288
385.0196
385.0513
385.0576
385.0239
385
385
384.9999
385.0001
385
385
384.9998
385.2433
385.2068
385.1695
385.2223
385.2523
385.2156
385.1796
385
385
385
385
385
385
385
384.9994
384.9992
384.9993
384.9993
384.9994
384.9992
384.9993
384.9995
384.9994
384.9995
384.9995
384.9995
384.9994
384.9995
385.8328
386.0407
386.0171
385.5204
385.514
385.5168
385.5081
384.9997
384.9996
384.9996
384.9996
384.9997
384.9996
384.9996
384.9989
384.9991
384.999
384.9991
384.9989
384.9991
384.999
385.0003
385.0001
385.0001
385.0002
385.0003
385
385.0001
385.2332
385.3276
385.2352
385.3413
385.2367
385.3338
385.2387
385.0007
385.0004
385.0005
385.0006
385.0007
385.0004
385.0004
385.4159
385.5438
385.5556
385.2786
385.29
385.3933
385.4105
385.7791
385.6918
385.8067
385.6182
385.551
385.6361
385.5686
385.2055
385.3045
385.0902
385.1861
385.3213
385.099
385.1999
385.0012
385.0009
385.0009
385.0012
385.0012
385.0009
385.0009
385.0047
385.0023
385.0044
385.0038
385.0075
385.0037
385.007
385.0047
385.0024
385.0047
385.0038
385.0074
385.0039
385.0075
385.0005
385.0038
385.0009
385.003
385.0008
385.0056
385.0015
384.9997
384.9991
384.9996
384.999
384.9995
384.999
384.9995
384.9996
384.999
384.9996
384.9989
384.9995
384.999
384.9995
384.9996
384.9989
384.9996
384.9989
384.9994
384.9989
384.9995
385.0058
385.0093
385.0111
385.011
385.0091
385.015
385.018
385.2125
385.2092
385.1515
385.2398
385.3442
385.347
385.2368
385.0007
385.0037
385.0041
385.0001
385.0003
385.0025
385.0029
385.0114
385.0231
385.0186
385.0223
385.0188
385.0347
385.0309
385.0059
385.0421
385.0261
385.0041
385.0059
385.0418
385.0259
384.9995
384.9989
384.9995
384.9988
384.9993
384.9989
384.9994
385.6639
385.9579
385.7752
385.8873
385.6218
385.9018
385.7073
384.9999
384.9999
384.9999
384.9999
384.9999
384.9999
384.9999
385.0599
385.0463
385.0645
385.0673
385.0954
385.0749
385.1038
385.0025
385.003
385.0041
385.0027
385.003
385.0034
385.0043
385.9923
385.8252
385.7793
385.2822
385.2545
385.2862
385.2579
384.9997
384.9997
384.9997
384.9997
384.9997
384.9997
384.9997
385
385
385
385
385
385
385
384.9995
384.9997
384.9996
384.9996
384.9995
384.9997
384.9996
385.0024
385.0003
385.0046
384.9996
385.002
385.0001
385.0038
387.3853
387.6725
387.5941
386.5312
386.7271
386.5938
386.8318
385.0022
385.0026
385.0026
385.0022
385.0022
385.0026
385.0026
432.002
432.0013
432.0021
432.0013
432.002
432.0013
432.0021
385.43
385.5677
385.5783
385.3013
385.3107
385.4266
385.4359
385.0004
385.0033
385.0033
384.9999
385
385.002
385.0021
385.0825
385.0303
385.0117
385.0412
385.0902
385.033
385.0128
386.6955
386.6313
386.6386
386.7053
386.6992
386.5674
386.5848
385.0779
385.1467
385.1576
385.0613
385.0608
385.1178
385.1244
410.5268
416.0345
410.5638
407.9018
402.3674
407.93
402.4006
386.6127
386.3781
386.5211
386.2855
386.3108
386.3795
386.3994
385.0698
385.0558
385.0769
385.0764
385.1057
385.0868
385.1181
385.0013
385.001
385.0003
385.0044
385.0014
385.0012
385.0004
385
384.9999
385.0001
385
385
384.9999
385.0001
387.1369
387.2075
387.2402
386.752
386.7562
386.8266
386.8255
385.0009
385.0024
385.0008
385.0035
385.001
385.0027
385.0009
385
385
385
385
385
385
385
385.4376
385.5849
385.5906
385.323
385.321
385.4645
385.4651
385.0422
385.0919
385.0492
385.1244
385.051
385.0966
385.0542
384.9998
384.9998
384.9998
384.9998
384.9998
384.9998
384.9998
385.013
385.0284
385.0094
385.0052
385.0129
385.0284
385.0095
385
385
385
385
385
385
385
385.0234
385.0103
385.0102
385.0175
385.0177
385.0074
385.0074
386.721
386.6932
386.7468
386.7589
386.7325
386.7132
386.7876
387.2542
388.8254
387.1679
386.8216
385.9806
386.8104
385.9434
385.0573
385.0203
385.1643
385.063
385.0571
385.0203
385.1642
385.5407
385.5425
385.5426
385.4545
385.4196
385.4698
385.4382
385.1495
385.237
385.1406
385.3619
385.2333
385.348
385.2241
385.0336
385.0197
385.023
385.0474
385.054
385.032
385.0377
385.0021
385.0011
385.0013
385.0026
385.0031
385.0012
385.0015
385.0115
385.0108
385.0151
385.0124
385.0193
385.0184
385.0265
385.0024
385.0023
385.0025
385.0023
385.0024
385.0023
385.0025
385.4466
385.6006
385.613
385.3269
385.3353
385.4694
385.4825
384.9995
384.9996
384.9995
384.9996
384.9995
384.9996
384.9995
384.999
384.9989
384.9995
384.9992
384.9989
384.9989
384.9993
385.0027
385.0076
385.0043
384.9999
385.0017
385.0055
385.0029
384.9996
384.9995
384.9996
384.9995
384.9996
384.9995
384.9996
385
385
385
385
385
385
385
385.0405
385.0292
385.0256
385.0303
385.0662
385.049
385.0437
386.7038
386.7078
386.6189
386.5685
386.6885
386.705
386.5445
386.1849
385.9578
386.0882
385.8355
385.8933
386.1268
386.2332
430.959
431.7496
432.0024
432.0015
430.959
431.7497
432.0024
384.9997
384.9997
384.9997
384.9996
384.9996
384.9996
384.9996
385.0005
385.0007
385.0005
385.0007
385.0004
385.0007
385.0005
385.0432
385.0319
385.0267
385.0582
385.0652
385.0482
385.0434
385
385
385
385
385
385
385
385.2322
385.2212
385.3127
385.3701
385.2171
385.2162
385.3366
386.638
386.6493
386.6347
386.6673
386.6183
386.6575
386.6248
385.0103
385.0237
385.0105
385.0175
385.0074
385.0175
385.0077
384.9989
384.9989
384.9995
384.9993
384.9988
384.9988
384.9993
385.1303
385.0964
385.116
385.1687
385.1382
385.1026
385.1211
385.4787
385.6275
385.6504
385.3594
385.3453
385.5155
385.4973
385.0011
384.9999
385.0004
385.0055
385.0013
384.9999
385.0005
384.9996
384.9996
384.9995
384.9995
384.9996
384.9996
384.9995
385.007
385.0095
385.002
385.0006
385.0056
385.0074
385.0012
384.9994
384.9994
385.0008
384.9999
384.9994
384.9994
385.0007
385.1243
385.1727
385.1827
385.225
385.2099
385.2857
385.3035
385.7257
385.7404
385.7246
385.3032
385.319
385.3128
385.3351
385.4812
385.4311
385.5912
385.7614
385.5285
385.4945
385.7265
386.3572
386.4766
386.4484
386.2633
386.2573
386.3631
386.3695
385.0097
385.0131
385.0156
385.013
385.0158
385.0214
385.0257
385.0023
385.0013
385.0007
385.0021
385.0036
385.0019
385.001
384.9997
384.9997
384.9997
384.9997
384.9997
384.9997
384.9997
384.9994
384.9992
384.999
384.999
384.9993
384.9991
384.999
385.0371
385.0231
385.0077
385.08
385.0419
385.026
385.0093
384.9991
384.9992
384.9992
384.999
384.9991
384.9992
384.9992
385.0002
385.0004
385.0001
385.0006
385.0002
385.0005
385.0001
384.9989
384.999
384.9989
384.9989
384.9989
384.999
384.9989
385.2628
385.1828
385.1197
385.3384
385.2804
385.1953
385.133
385.533
385.5319
385.5215
385.528
385.5164
385.5089
385.4935
385.0021
385.0017
385.0019
385.0025
385.0023
385.0019
385.0019
385.1065
385.2617
385.1171
385.0962
385.0459
385.1049
385.0553
384.9996
384.9995
384.9996
384.9997
384.9996
384.9995
384.9996
385.5534
385.5363
385.5346
385.5268
385.5174
385.5072
385.5037
385.1928
385.2056
385.2034
385.204
385.1974
385.2085
385.2067
386.5862
386.4255
386.5842
385.2225
385.2197
385.2299
385.2293
384.9997
384.9997
384.9997
384.9997
384.9997
384.9997
384.9997
385.5103
385.4942
385.4817
385.5026
385.4933
385.4711
385.4571
386.6753
387.2071
386.8387
386.3999
386.3836
386.4707
386.458
385.7292
385.3313
385.5237
385.4657
385.5892
385.3178
385.414
384.9999
384.9999
384.9999
384.9999
384.9999
384.9999
384.9999
385
385
385
385
385
385
385
385.1344
385.0783
385.0845
385.1177
385.1191
385.0656
385.0747
385.5808
385.5825
385.5517
385.4852
385.5169
385.489
385.5011
384.999
384.9991
384.9991
384.999
384.999
384.9991
384.9991
385
385
385
385
385
385
385
385.0018
385.0015
385.0018
385.0015
385.0018
385.0015
385.0018
385.7582
385.5368
385.5988
385.8199
385.8643
385.5736
385.5953
385.0006
385.0019
385.0007
385.0072
385.0007
385.0021
385.0007
385.5484
386.1365
385.5549
385.1929
385.4717
385.2411
385.4868
385.4687
385.4987
385.4657
385.4637
385.4751
385.4251
385.4376
385.3734
385.1792
385.2169
385.2381
385.2957
385.1496
385.174
385.0004
385.0003
385.0032
385.002
385
384.9999
385.002
384.9994
384.9995
384.9994
384.9994
384.9994
384.9995
384.9994
385.0012
385.0049
385.0052
385.0011
385.001
385.0048
385.0049
385.0298
385.0258
385.016
385.0279
385.0461
385.0402
385.0248
385.6749
385.8638
385.8688
385.4998
385.5051
385.7242
385.7222
385.6964
385.8806
385.9053
385.5132
385.4627
385.7829
385.723
385.8371
385.9825
385.9908
385.615
385.6012
385.8797
385.8773
385.8465
385.9997
386.007
385.6581
385.6415
385.9042
385.891
385.6621
385.8727
385.8763
385.4958
385.4757
385.7284
385.7175
385.7949
385.9479
385.9652
385.5617
385.5756
385.8434
385.8641
385.8421
385.9952
385.9972
385.6247
385.6289
385.8821
385.8826
385.6769
385.8417
385.8555
385.4841
385.4932
385.6851
385.7041
385.8711
386.0211
386.0384
385.6728
385.6946
385.9223
385.9373
386.0557
385.8815
386.0604
385.7228
385.7325
385.9533
385.9631
385.8888
386.0511
386.0582
385.7296
385.7147
385.9638
385.9493
385
385
385
385
385
385
385
384.999
384.9992
384.9991
384.9991
384.999
384.9992
384.9991
385.0862
385.019
385.1996
385.0104
385.0858
385.0189
385.1989
384.9999
385
384.9999
385
384.9999
385
384.9999
384.9996
384.9997
384.9996
384.9997
384.9996
384.9997
384.9995
384.9994
384.9995
384.9995
384.9995
384.9994
384.9995
384.9995
384.9992
384.9994
384.9992
384.9993
384.9992
384.9994
384.9992
384.9995
384.9996
384.9996
384.9995
384.9995
384.9996
384.9996
384.9993
384.9994
384.9994
384.9993
384.9993
384.9994
384.9994
385.0767
385.0773
385.1412
385.1165
385.0624
385.0616
385.1176
385.1517
385.1195
385.1238
385.1622
385.1581
385.1309
385.1419
386.0529
385.8636
386.0488
385.724
385.731
385.9541
385.9641
385.8669
386.0563
386.0477
385.79
385.7466
386.0378
385.9802
385
385
385
385
385
385
385
386.5772
386.5987
386.5782
386.5964
386.587
386.6077
386.5885
385.2341
385.2663
385.4147
385.3935
385.252
385.2655
385.3955
386.5904
386.5909
386.5842
386.6029
386.5962
386.6029
386.5961
384.9993
384.9994
384.9994
384.9993
384.9993
384.9994
384.9994
384.9992
384.9992
384.9991
384.9991
384.9992
384.9992
384.9991
397.2934
396.6685
388.3845
388.3792
397.2934
396.6709
388.3852
399.2379
404.7142
399.2788
397.2427
393.3062
397.2759
393.3374
385.4275
385.2437
385.265
385.3755
385.3929
385.219
385.2277
385.0012
385.0009
385.0009
385.0012
385.0012
385.0009
385.0009
386.0917
393.0761
390.7171
385.8952
386.0891
393.0663
390.7076
385
385
385
385
385
385
385
384.9992
384.999
384.9991
384.9991
384.9991
384.999
384.9991
385.0007
385
384.9994
384.9996
385.001
385.0001
384.9994
385.0026
385.0066
385.024
385.0136
385.0026
385.0064
385.0234
384.9999
384.9999
384.9999
384.9999
384.9999
384.9999
384.9999
385.7901
385.5438
385.3905
385.5077
385.6431
385.4221
385.3076
385.0015
385.0017
385.0017
385.0014
385.0014
385.0017
385.0017
384.9989
384.9989
384.9988
384.9988
384.9989
384.9989
384.9988
385.028
385.0291
385.0219
385.0331
385.0483
385.05
385.0375
385.0015
385.0009
385.0008
385.0016
385.0021
385.0011
385.001
387.1726
387.0815
387.1928
386.8513
386.9475
386.9507
387.0664
385.2204
385.1344
385.3014
385.1623
385.3835
385.1439
385.1921
384.999
385.003
384.9999
385.0037
384.9998
384.9999
384.9998
386.361
385.8002
386.1041
386.5265
385.7135
385.9852
386.5403
385.1049
385.0878
385.2063
385.1704
385.0986
385.0834
385.1917
385
384.9999
385
384.9999
385
384.9999
385
385.088
385.0797
385.0638
385.0993
385.1422
385.1318
385.1059
385.0025
385.0036
385.0169
385.0102
385.0015
385.0023
385.013
384.9988
384.9988
384.9988
384.9988
384.9988
384.9988
384.9988
384.9999
384.9999
384.9999
384.9999
384.9999
384.9999
384.9999
385.0005
385.0005
385.0007
385.0012
385.0006
385.0005
385.0008
385.0033
385.0034
385.0033
385.0006
385.0006
385.0006
385.0006
386.3911
386.3095
386.4017
386.1428
386.1764
386.2225
386.2475
385.1071
385.0565
385.0325
385.0593
385.0935
385.0582
385.0318
386.6009
386.5982
386.6219
386.6331
386.6043
386.6032
386.6274
385.063
385.0678
385.1437
385.1031
385.0503
385.0522
385.1086
397.1533
415.7074
409.7457
402.4062
397.1445
415.7019
409.7369
386.6307
386.6191
386.6249
386.6296
386.6382
386.6262
386.63
385.0005
385.0005
385.0007
385.0007
385.0005
385.0005
385.0007
385.5359
385.2848
385.3333
385.4101
385.4466
385.2429
385.2672
385.7553
386.19
385.7779
385.8762
385.5815
385.9658
385.6037
384.9988
384.9988
384.9988
384.9988
384.9988
384.9989
384.9989
384.9988
384.9989
384.9989
384.9988
384.9988
384.9989
384.9989
384.9998
384.9997
384.9996
384.9997
384.9998
384.9997
384.9996
384.9989
384.9989
384.9989
384.9989
384.9989
384.9989
384.9989
384.9997
384.9993
384.9993
384.9999
384.9998
384.9993
384.9993
384.9991
384.9991
384.9992
384.9992
384.9991
384.9991
384.9992
385.044
385.1469
385.067
385.118
385.0463
385.1461
385.0679
385.6613
385.7773
385.8113
385.4597
385.4476
385.6435
385.6358
385.2134
385.2695
385.3027
385.2109
385.2567
385.3119
385.3748
386.3085
386.5573
386.6194
385.2094
385.2575
385.2113
385.2678
384.9994
384.9994
384.9993
384.9993
384.9994
384.9994
384.9993
385.0156
385.0383
385.0326
385.027
385.0173
385.0422
385.0361
384.9995
384.9988
384.9988
384.9993
384.9993
384.9988
384.9988
385.0403
385.0138
385.0192
385.028
385.0365