/*--------------------------------*- C++ -*----------------------------------*\
| =========                 |                                                 |
| \\      /  F ield         | OpenFOAM: The Open Source CFD Toolbox           |
|  \\    /   O peration     | Version:  1912                                  |
|   \\  /    A nd           | Website:  www.openfoam.com                      |
|    \\/     M anipulation  |                                                 |
\*---------------------------------------------------------------------------*/
FoamFile
{
    version     2.0;
    format      ascii;
    class       volScalarField;
    location    "40000/fluid";
    object      Tf.gasAndLiquid;
}
// * * * * * * * * * * * * * * * * * * * * * * * * * * * * * * * * * * * * * //

dimensions      [0 0 0 1 0 0 0];


internalField   nonuniform List<scalar> 
4960
(
384.9997
385.001
407.8276
385.0002
385.2519
385.0021
384.9992
385.1549
386.3534
432.0011
384.9998
386.6299
384.9998
385.0016
385.1727
385.0968
385.1286
384.9996
384.9999
385.1526
385.1171
384.9993
385
384.999
385.1388
384.9999
385.0961
385.0004
385.1688
385.011
385.5832
385.1916
385.1804
385.0309
385.0216
385
385.0151
385.0013
385.0099
384.999
385.0003
384.9997
384.9996
385.073
385.2491
385.0088
384.9999
385.2882
384.9999
385.1455
385.018
387.1187
385.7372
385.0008
384.9998
385.0167
384.9998
424.753
385
406.3922
385.0364
385.0025
385
385
387.5917
385.0153
385.2703
385.0019
386.5618
385.0014
384.9998
396.4137
409.8151
385.0042
385.0072
385.0637
385.0017
384.9999
385.0004
386.187
384.9996
384.9998
385.0581
385
385.0089
385.0737
385.0187
385.0061
385.0179
385.0044
385.0059
385.0067
384.9997
385
385.866
386.6363
385.0115
385
385.0059
384.9989
385.0041
385.0052
385.0007
385.005
385.0028
385
384.9997
385
384.9997
385.0012
385.0023
385.5344
385.0308
385.0037
385.0124
432.003
385.003
385.0027
385.0031
384.9988
384.9995
387.9432
385.0011
385.1215
385.0279
384.9999
385.1377
385.024
385.003
385.1477
385.0024
385
385
385
385.0088
385.005
385.0343
385
385.0046
385.0055
385.0014
384.9989
386.6969
385.0045
386.1221
385.34
386.2409
385.0058
385.0001
385.0353
385.0145
386.6196
385.2429
385.0363
384.9998
385.0608
387.6447
385.1754
385.5385
385.5918
387.3197
387.2594
385.349
384.9999
385.2201
385.3533
385.003
384.9999
385.3713
392.4053
385.0609
384.9999
385.3837
384.9997
385.395
384.9988
384.9999
385.2457
385
385.3336
385
385.1643
385.6295
385.0577
385.262
385.2028
387.2029
385.0228
385.0001
385.21
385
384.9993
384.9995
385.8095
384.9997
384.9991
385.0002
385.3346
385.0007
385.4081
385.6722
385.1853
385.0012
385.0023
385.0024
385.0021
384.999
384.999
384.9989
385.0069
385.1509
385.0006
385.0142
385.0041
384.9989
385.836
384.9999
385.0419
385.0025
386.0251
384.9997
385
384.9996
384.9997
387.4763
385.0022
432.0013
385.424
385.0004
385.0371
386.7034
385.0795
416.0067
386.5623
385.0508
385.0038
385
387.1017
385.0031
385
385.4347
385.0869
384.9998
385.005
385
385.0236
386.7485
388.7994
385.063
385.5336
385.2456
385.0294
385.0018
385.0075
385.0022
385.4392
384.9996
384.9993
385.0004
384.9995
385
385.0178
386.6082
386.0304
432.0015
384.9997
385.0007
385.038
385
385.3621
386.6592
385.0234
384.9995
385.1616
385.4563
385.0047
384.9995
385.0011
384.9999
385.1327
385.7649
385.6364
386.3755
385.0081
385.0013
384.9997
384.999
385.0746
384.9991
385.0006
384.999
385.323
385.5471
385.002
385.2474
384.9997
385.5565
385.2007
386.4119
384.9997
385.5212
386.9122
385.464
384.9999
385
385.1353
385.5731
384.999
385
385.0015
385.7025
385.0056
386.1411
385.5015
385.2536
385.0032
384.9994
385.0014
385.0176
385.6794
385.6607
385.826
385.843
385.668
385.766
385.8415
385.6727
385.8566
385.8729
385.8811
385
384.9991
385.0105
385
384.9997
384.9995
384.9994
384.9995
384.9993
385.1365
385.16
385.8678
385.8941
385
386.5884
385.3681
386.5988
384.9993
384.9991
388.3802
404.6722
385.3876
385.0012
385.8973
385
384.9992
384.9996
385.013
384.9999
385.6177
385.0015
384.9988
385.0192
385.0011
387.0583
385.2184
384.9995
386.3236
385.174
384.9999
385.0609
385.013
384.9988
384.9999
385.0008
385.0034
386.2876
385.061
386.6289
385.1303
402.4131
386.6214
385.0007
385.4688
386.0741
384.9988
384.9988
384.9997
384.9989
384.9998
384.9992
385.114
385.6271
385.187
386.3016
384.9993
385.0239
384.9995
385.0327
385
385.0242
384.9988
384.9992
385.0918
385.0228
385.0658
385
385.194
386.619
386.515
385.0251
386.7676
384.9993
386.6
385
385.1735
385.7052
384.9999
384.9993
385
384.9996
386.3477
385.1675
384.9998
384.9996
385.0006
385.3367
427.9055
385.5313
385.033
384.9988
385.1224
385
384.9993
385.0001
385.0226
385.1381
384.9996
384.9995
385.0813
431.9597
384.9991
385.0749
386.4753
385.0546
386.6261
384.9994
385.0867
394.7013
385.0012
385.0004
385
384.9999
386.6397
384.9995
385
387.3198
432.0004
385
385
385.1213
385
386.6369
385.0024
385.7003
386.3261
384.999
385
386.9395
385.0098
385.4789
385.123
384.9997
384.9997
385.1127
385.0497
385.0153
384.9996
385.0346
385
386.2226
384.9997
384.9998
384.9999
384.9998
385.3852
385.1682
385.003
386.5859
385
432.0002
430.742
385.4026
431.023
384.9992
386.3684
385.6624
384.9998
385.9611
385.1114
384.9997
385.381
386.6623
385.4835
385.4025
425.0171
385.0544
385
385.9656
432.0019
385.0106
384.9999
385.4343
384.9996
385.4283
384.9998
386.9132
385.583
386.2319
384.9994
384.9989
385.4442
431.7569
385.702
385.3207
385.1795
384.9999
385.1287
384.999
384.999
385.0021
384.9994
384.9998
386.6512
386.3318
422.0104
385.0027
385.0001
385.0762
432.0001
384.9989
385.4545
386.6834
384.9997
385.3108
385.8048
385.3492
385.4434
384.9996
386.8619
385.1525
385.1879
385.0883
385
385
384.9994
385.0031
385.124
385.0864
385.0011
385
385
385.0445
385.3438
385.037
385.0494
385
384.9992
384.9993
384.9999
384.9994
385.2411
385.1766
426.2026
385.5337
385.0003
399.9958
386.3309
384.9992
385.1872
385.0613
384.9988
384.9996
385.0039
386.4705
385
385
386.3971
432.0001
384.9991
384.9993
385.0024
385.3841
384.9998
386.2912
386.6357
385.3055
385.1473
385.2502
384.9999
385
384.9995
387.3071
385.2131
385
399.2755
384.9996
385.176
384.9999
385.1437
385.1145
385.1933
385.1954
385.0025
385.3407
386.7165
385.4883
384.9997
385
432
384.9997
384.9997
384.9997
384.9997
384.9997
384.9997
384.9997
385.0012
385.001
385.0013
385.0011
385.0012
385.001
385.0013
410.3477
415.6259
402.6525
407.8467
410.36
415.6399
402.6671
385.0003
385.0002
385.0003
385.0003
385.0002
385.0003
385.0002
385.1528
385.1553
385.2527
385.3719
385.24
385.2418
385.3752
385.0008
385.002
385.0007
385.0024
385.0009
385.0022
385.0008
384.9991
384.999
384.999
384.9992
384.9992
384.999
384.999
385.2633
385.2072
385.2016
385.2671
385.4309
385.3502
385.3356
386.0505
385.5746
387.3405
386.3633
386.0579
385.5797
387.3558
432.0019
432.0012
432.0018
432.0011
432.0019
432.0012
432.0018
384.9999
384.9999
384.9998
384.9997
384.9998
384.9998
384.9997
386.575
386.6306
386.5662
386.6836
386.5934
386.6781
386.5887
384.9998
384.9998
384.9998
384.9998
384.9998
384.9998
384.9998
385.0015
385.0069
385.006
385.0013
385.0013
385.0061
385.0055
385.102
385.1961
385.0904
385.2131
385.1237
385.2439
385.1016
385.0539
385.0478
385.1067
385.1401
385.0815
385.0718
385.1563
385.0598
385.0659
385.1165
385.1834
385.0909
385.1
385.1692
384.9996
384.9995
384.9995
384.9996
384.9996
384.9995
384.9995
384.9998
384.9998
384.9998
384.9999
384.9998
384.9998
384.9998
385.2227
385.2176
385.1564
385.2143
385.308
385.3192
385.2141
385.1295
385.2072
385.2183
385.1073
385.1162
385.1954
385.2012
384.9994
384.9993
384.9993
384.9993
384.9994
384.9993
384.9993
385
385
385
385
385
385
385
384.9991
384.9991
384.999
384.999
384.9991
384.9991
384.999
385.0803
385.0738
385.1488
385.2019
385.1224
385.1102
385.2169
384.9999
384.9999
384.9999
384.9999
384.9999
384.9999
384.9999
385.0667
385.1085
385.1392
385.1622
385.1132
385.1863
385.2327
385.0006
385.0004
385.0006
385.0005
385.0007
385.0005
385.0007
385.0869
385.0942
385.1587
385.2503
385.1332
385.1457
385.2329
385.0184
385.0256
385.0153
385.0169
385.0283
385.0409
385.0243
385.4323
385.5861
385.4451
385.7455
385.5198
385.7347
385.5614
385.1486
385.1793
385.1483
385.215
385.1723
385.2009
385.1791
385.1015
385.1107
385.1941
385.2693
385.1598
385.1753
385.2898
385.0433
385.0617
385.0441
385.0527
385.0737
385.104
385.0747
385.015
385.0287
385.0381
385.0318
385.0201
385.0389
385.0574
385
385
385
385
385
385
385
385.003
385.0077
385.003
385.0148
385.003
385.0076
385.0029
385.0017
385.0056
385.0076
385.0008
385.0013
385.0044
385.0066
385.0144
385.0191
385.0261
385.0168
385.0246
385.0324
385.045
384.9992
384.999
384.9991
384.999
384.9992
384.999
384.9991
385.0002
385.0001
385.0004
385.0003
385.0002
385.0001
385.0003
384.9996
384.9997
384.9996
384.9997
384.9996
384.9996
384.9995
384.9995
384.9996
384.9995
384.9996
384.9995
384.9996
384.9995
385.0803
385.1658
385.1511
385.0555
385.0611
385.129
385.1178
385.119
385.2211
385.1387
385.3071
385.1542
385.2773
385.1802
385.0149
385.0235
385.033
385.0064
385.0111
385.0182
385.0257
384.9999
384.9999
384.9999
384.9999
384.9999
384.9999
384.9999
385.1553
385.2555
385.1986
385.4266
385.2427
385.3812
385.3121
384.9999
384.9999
384.9999
384.9999
384.9999
384.9999
384.9999
385.0745
385.0831
385.1212
385.1781
385.0805
385.089
385.1426
385.0268
385.0271
385.0168
385.0309
385.0458
385.0468
385.0288
388.3761
395.3735
397.9459
387.1153
388.3734
395.3673
397.944
385.1392
385.2924
385.3716
385.7412
385.1438
385.2961
385.379
385.0007
385.0006
385.0007
385.0009
385.0007
385.0006
385.0008
384.9998
384.9998
384.9998
384.9998
384.9998
384.9998
384.9998
385.0449
385.0982
385.0346
385.0189
385.0474
385.1
385.0359
384.9997
384.9998
384.9997
384.9998
384.9997
384.9998
384.9997
414.8483
420.6171
426.5837
424.7535
414.8499
420.6197
426.5846
385
385
385
385
385
385
385
419.5276
422.513
410.7724
406.3884
419.525
422.5125
410.7722
385.0638
385.0572
385.0398
385.0404
385.0702
385.0631
385.0442
385.0021
385.0022
385.0026
385.0025
385.0021
385.0022
385.0026
385
385
385
385
385
385
385
385
385
385
385
385
385
385
387.8727
387.1002
387.4315
386.4077
386.4343
386.475
386.5013
385.0263
385.0264
385.0158
385.0262
385.0446
385.0445
385.0271
385.2542
385.1557
385.1583
385.3139
385.279
385.1975
385.1988
385.0015
385.0015
385.0018
385.0018
385.0015
385.0015
385.0018
386.6114
386.6053
386.5777
386.5739
386.618
386.6098
386.5895
385.0018
385.0018
385.0015
385.0014
385.0018
385.0018
385.0015
384.9998
384.9999
384.9998
384.9998
384.9998
384.9999
384.9998
389.5631
393.4271
390.8584
396.4357
389.5779
393.4491
390.8739
405.2029
417.1079
411.5046
409.8182
405.2086
417.1126
411.5128
385.0071
385.0129
385.0083
385.0057
385.0104
385.0187
385.0113
385.0083
385.0126
385.0115
385.0121
385.0141
385.0215
385.0196
385.0606
385.1012
385.0972
385.1097
385.1049
385.1727
385.1657
385.002
385.0017
385.002
385.0024
385.002
385.0024
385.002
384.9999
384.9999
384.9999
384.9999
384.9999
384.9999
384.9999
384.9996
384.9992
385.002
385
384.9994
384.999
385.0011
386.3709
385.9556
386.0403
386.0648
386.3255
386.0068
386.1309
384.9995
384.9995
384.9996
384.9996
384.9995
384.9995
384.9996
384.9998
384.9999
384.9999
384.9998
384.9998
384.9998
384.9999
385.0584
385.0868
385.0835
385.0969
385.0971
385.1427
385.1374
385
385
385
384.9999
385
384.9999
385
385.0172
385.0522
385.0248
385.0097
385.0176
385.0527
385.0255
385.366
385.5722
385.0622
385.0734
385.3639
385.5696
385.0619
385.0203
385.0292
385.0287
385.0312
385.0345
385.0507
385.0491
385.0063
385.0132
385.0143
385.0102
385.0107
385.0219
385.0238
385.0282
385.027
385.0168
385.0296
385.0477
385.0444
385.0272
385.0092
385.01
385.0184
385.0047
385.0099
385.0121
385.0223
385.0047
385.0094
385.0077
385.0095
385.0073
385.0156
385.0125
385.0042
385.0054
385.0081
385.0111
385.0067
385.0087
385.0136
384.9997
384.9998
384.9998
384.9997
384.9997
384.9998
384.9998
385
385
385
385
385
385
385
385.1817
385.4216
386.1492
385.864
385.1812
385.4214
386.1483
386.5956
386.6378
386.5908
386.6793
386.6181
386.6802
386.6118
385.0176
385.0465
385.0354
385.0106
385.0157
385.0427
385.0336
385
385
385
385
385
385
385
385.0061
385.0078
385.0124
385.0075
385.0091
385.0103
385.0137
384.9989
384.9994
384.9993
384.9989
384.9988
384.9992
384.9991
385.0035
385.0055
385.0065
385.006
385.005
385.0085
385.0104
385.0062
385.0092
385.0104
385.0086
385.0104
385.0156
385.0177
385.0009
385.0007
385.0009
385.0011
385.0009
385.0011
385.0008
385.0046
385.0078
385.0066
385.0076
385.0067
385.0124
385.0103
385.0033
385.014
385.0071
385.0028
385.0033
385.0139
385.0071
385
385
385
385
385
385
385
384.9997
384.9997
384.9997
384.9996
384.9996
384.9996
384.9996
385.0001
385
385.0001
385
385.0001
385
385.0001
384.9997
384.9997
384.9997
384.9996
384.9996
384.9996
384.9996
385.001
385.0012
385.001
385.0012
385.0009
385.0012
385.0009
385.0027
385.0023
385.0026
385.0027
385.0035
385.0026
385.0033
385.283
386.2487
385.7133
385.5367
385.2848
386.2545
385.7173
385.0273
385.0469
385.0423
385.048
385.0427
385.0727
385.065
385.0036
385.0046
385.0068
385.0052
385.0042
385.0057
385.0073
385.0104
385.0198
385.0171
385.0199
385.0167
385.0313
385.0273
432.003
416.3331
403.5958
432.003
416.3239
403.5823
432.003
385.0022
385.0022
385.0027
385.0043
385.0028
385.0027
385.0037
385.0033
385.0022
385.0018
385.0039
385.005
385.003
385.0022
385.0047
385.004
385.003
385.0043
385.0071
385.0059
385.0039
384.9988
384.9989
384.999
384.9988
384.9987
384.9988
384.9989
384.9996
384.9996
384.9995
384.9995
384.9996
384.9996
384.9995
386.817
390.7916
388.7992
387.9573
386.8277
390.813
388.8184
385.0014
385.0011
385.0014
385.0013
385.0016
385.0013
385.0016
385.2088
385.2235
385.132
385.1888
385.3092
385.3289
385.2062
385.0387
385.0455
385.0531
385.043
385.062
385.0704
385.0847
384.9999
384.9999
384.9999
384.9999
384.9998
384.9999
384.9998
385.1458
385.2237
385.2281
385.1213
385.1268
385.202
385.2039
385.0206
385.034
385.0381
385.0377
385.0325
385.0527
385.0591
385.0339
385.003
385.0937
385.003
385.0331
385.003
385.0911
385.3891
385.2013
385.073
385.1491
385.3919
385.2035
385.0741
385.5507
385.0024
385.5218
385.0028
385.2281
385.0028
385.2199
385
385
385
385
385
385
385
385
385
385
385
385
385
385
385
385
385
385
385
385
385
385.0145
385.0082
385.0124
385.0141
385.0232
385.0125
385.0197
385.0026
385.0041
385.0078
385.0083
385.0043
385.0068
385.0132
385.0381
385.0511
385.0553
385.0547
385.0608
385.0802
385.0872
385
385
385
385
385
385
385
385.0027
385.0054
385.0033
385.0075
385.0042
385.0089
385.0052
385.0024
385.0049
385.0081
385.0084
385.0038
385.0078
385.0128
385.0001
385.0019
385.0048
385.0015
385.0002
385.0025
385.0059
384.999
384.9989
384.9988
384.9989
384.999
384.9989
384.9988
386.6593
386.6363
386.6749
386.7013
386.6616
386.6338
386.6753
385.0048
385.003
385.0006
385.0006
385.0031
385.0005
385.0006
385.9216
386.1339
386.3342
386.0355
385.8109
385.9989
386.2415
385.2629
385.3429
385.2532
385.349
385.2676
385.3509
385.2572
386.4404
386.2404
386.4155
386.161
386.3646
386.1953
386.3554
385.0063
385.012
385.0103
385.0095
385.0103
385.0197
385.0166
385.0001
385
385.0001
385.0001
385.0001
385
385.0001
385.0777
385.2223
385.1073
385.0355
385.0779
385.2231
385.108
385.0227
385.0259
385.017
385.0234
385.0363
385.0417
385.0276
386.6556
386.6399
386.608
386.6181
386.6561
386.6424
386.6093
385.2177
385.2176
385.2352
385.2488
385.2245
385.2211
385.2391
385.0234
385.0262
385.0194
385.043
385.0358
385.0367
385.0268
384.9998
384.9998
384.9999
384.9998
384.9998
384.9998
384.9999
385.0956
385.0609
385.0939
385.1044
385.162
385.104
385.1582
387.8348
387.4461
387.6521
386.428
386.435
386.4709
386.4869
385.1237
385.1663
385.2406
385.1684
385.1187
385.1772
385.2542
385.5568
385.5816
385.5964
385.4807
385.4904
385.4885
385.4975
385.6178
385.6067
385.6328
385.4886
385.4847
385.502
385.4968
387.4145
387.298
387.4103
386.7408
386.7537
386.8258
386.8355
387.2773
387.3829
387.3962
386.7781
386.7641
386.8557
386.8433
385.2691
385.2799
385.3473
385.3596
385.281
385.2841
385.3554
384.9999
384.9999
384.9999
384.9999
384.9999
384.9999
384.9999
385.2121
385.2107
385.218
385.2222
385.2145
385.2132
385.22
385.3637
385.4464
385.461
385.1922
385.2053
385.2619
385.2803
385.0017
385.0038
385.0022
385.0049
385.0026
385.0062
385.0034
384.9999
384.9999
384.9999
384.9999
384.9999
384.9999
384.9999
385.3781
385.4747
385.4878
385.2294
385.2206
385.3139
385.2973
402.6641
386.98
391.7788
392.3967
402.6528
386.9753
391.7685
385.0917
385.061
385.0849
385.1038
385.1543
385.1034
385.1448
384.9999
384.9999
384.9999
384.9999
384.9999
384.9999
384.9999
385.3887
385.499
385.5094
385.2397
385.2495
385.3307
385.3453
384.9997
384.9998
384.9998
384.9997
384.9997
384.9998
384.9998
385.4018
385.5208
385.5327
385.2685
385.2589
385.3768
385.3608
384.9989
384.9988
384.9988
384.9988
384.9989
384.9988
384.9988
384.9999
384.9999
384.9999
384.9999
384.9999
384.9999
384.9999
385.2466
385.2311
385.2302
385.2487
385.2501
385.2334
385.2323
385
385
385
385
385
385
385
385.2368
385.2438
385.3274
385.3423
385.2404
385.2478
385.3355
385
385
385
385
385
385
385
385.0423
385.0231
385.0103
385.1818
385.0516
385.0264
385.0117
385.645
385.6475
385.6638
385.4969
385.5129
385.5109
385.5273
385.0869
385.0868
385.0574
385.0951
385.1423
385.1421
385.093
385.2698
385.2462
385.2637
385.2737
385.2754
385.2593
385.2711
385.2246
385.2104
385.188
385.2043
385.2262
385.2126
385.1909
387.2348
387.3133
387.3566
386.7792
386.7762
386.8558
386.8487
385.057
385.0661
385.0286
385.0196
385.051
385.0574
385.0239
385
385
384.9999
385.0001
385
385
384.9998
385.2433
385.2068
385.1691
385.2221
385.2523
385.2156
385.1792
385
385
385
385
385
385
385
384.9994
384.9992
384.9993
384.9993
384.9994
384.9992
384.9993
384.9995
384.9994
384.9995
384.9995
384.9995
384.9994
384.9995
385.8334
386.0407
386.0169
385.5195
385.5139
385.5159
385.508
384.9997
384.9996
384.9996
384.9996
384.9997
384.9996
384.9996
384.9989
384.9991
384.999
384.9991
384.9989
384.9991
384.999
385.0003
385.0001
385.0001
385.0002
385.0003
385
385.0001
385.2332
385.3276
385.2352
385.3413
385.2367
385.3338
385.2387
385.0007
385.0004
385.0005
385.0006
385.0007
385.0004
385.0004
385.416
385.5443
385.5557
385.2785
385.2899
385.3932
385.4103
385.7794
385.6919
385.8069
385.6179
385.5508
385.6358
385.5684
385.2008
385.3039
385.0888
385.1852
385.3208
385.0975
385.1991
385.0012
385.0009
385.0009
385.0012
385.0012
385.0009
385.0009
385.0047
385.0023
385.0044
385.0038
385.0075
385.0037
385.007
385.0047
385.0024
385.0047
385.0038
385.0074
385.0039
385.0075
385.0005
385.0038
385.0009
385.003
385.0008
385.0056
385.0015
384.9997
384.9991
384.9996
384.999
384.9995
384.999
384.9995
384.9996
384.999
384.9996
384.9989
384.9995
384.999
384.9995
384.9996
384.9989
384.9996
384.9989
384.9994
384.9989
384.9995
385.0058
385.0093
385.0111
385.011
385.0091
385.015
385.018
385.2124
385.2091
385.1515
385.2397
385.3441
385.3468
385.2365
385.0007
385.0037
385.0041
385.0001
385.0003
385.0025
385.0029
385.0113
385.023
385.0185
385.0235
385.0188
385.0377
385.0309
385.0059
385.0421
385.0261
385.0041
385.0059
385.0418
385.0259
384.9995
384.9989
384.9995
384.9988
384.9993
384.9989
384.9994
385.6639
385.9572
385.7743
385.8864
385.6216
385.9013
385.6979
384.9999
384.9999
384.9999
384.9999
384.9999
384.9999
384.9999
385.0598
385.0462
385.0645
385.0671
385.0952
385.075
385.1042
385.0025
385.003
385.0041
385.0027
385.003
385.0034
385.0043
385.9879
385.8225
385.7761
385.282
385.2548
385.2861
385.2582
384.9997
384.9997
384.9997
384.9997
384.9997
384.9997
384.9997
385
385
385
385
385
385
385
384.9995
384.9997
384.9996
384.9996
384.9995
384.9997
384.9996
385.0024
385.0003
385.0046
384.9996
385.002
385.0001
385.0038
387.3851
387.6735
387.594
386.5302
386.726
386.593
386.8311
385.0022
385.0026
385.0026
385.0022
385.0022
385.0026
385.0026
432.002
432.0013
432.0021
432.0013
432.002
432.0013
432.0021
385.4298
385.5677
385.5782
385.3013
385.3105
385.4269
385.4396
385.0004
385.0033
385.0033
384.9999
385
385.002
385.0021
385.0811
385.0283
385.0115
385.0407
385.0885
385.0311
385.0128
386.6954
386.6312
386.6385
386.7052
386.6992
386.5673
386.5847
385.0779
385.1467
385.1576
385.061
385.0607
385.118
385.1242
410.5269
416.0345
410.5639
407.9018
402.3676
407.9302
402.4009
386.6116
386.3758
386.5207
386.2854
386.3109
386.3796
386.3994
385.0697
385.0557
385.0759
385.0815
385.1115
385.0904
385.1215
385.0013
385.001
385.0003
385.0043
385.0014
385.0011
385.0004
385
384.9999
385.0001
385
385
384.9999
385.0001
387.1367
387.2073
387.2401
386.7521
386.7564
386.8267
386.8255
385.0009
385.0024
385.0008
385.0035
385.001
385.0027
385.0009
385
385
385
385
385
385
385
385.4369
385.5866
385.5928
385.3227
385.3191
385.4617
385.4555
385.0404
385.0888
385.049
385.1017
385.0455
385.0959
385.0539
384.9998
384.9998
384.9998
384.9998
384.9998
384.9998
384.9998
385.013
385.0284
385.0094
385.0052
385.0131
385.0285
385.0095
385
385
385
385
385
385
385
385.0233
385.0102
385.0102
385.0175
385.0176
385.0074
385.0074
386.721
386.6933
386.7469
386.7588
386.7325
386.7133
386.7876
387.184
388.837
387.1808
386.8203
385.9804
386.8303
385.9809
385.0573
385.0203
385.1643
385.063
385.0571
385.0203
385.1642
385.5404
385.5424
385.5426
385.4546
385.4183
385.4701
385.4381
385.1499
385.2372
385.1438
385.3619
385.2331
385.3486
385.2244
385.0334
385.0196
385.023
385.0473
385.054
385.032
385.0376
385.0021
385.0011
385.0013
385.0026
385.0031
385.0012
385.0015
385.0115
385.0108
385.0154
385.0123
385.0193
385.0183
385.0265
385.0024
385.0023
385.0025
385.0023
385.0024
385.0023
385.0025
385.4466
385.6009
385.6136
385.3269
385.3351
385.4692
385.4823
384.9995
384.9996
384.9995
384.9996
384.9995
384.9996
384.9995
384.999
384.9989
384.9995
384.9992
384.9989
384.9989
384.9993
385.0026
385.0075
385.0043
384.9999
385.0016
385.0054
385.0029
384.9996
384.9995
384.9996
384.9995
384.9996
384.9995
384.9996
385
385
385
385
385
385
385
385.04
385.0292
385.0257
385.0303
385.0662
385.049
385.0435
386.7037
386.7078
386.6189
386.5684
386.6884
386.705
386.5445
386.184
385.9578
386.0882
385.8352
385.8931
386.1264
386.2331
430.959
431.7496
432.0024
432.0015
430.959
431.7497
432.0024
384.9997
384.9997
384.9997
384.9996
384.9996
384.9996
384.9996
385.0005
385.0007
385.0005
385.0007
385.0004
385.0007
385.0005
385.0432
385.0319
385.0266
385.0614
385.0701
385.0521
385.044
385
385
385
385
385
385
385
385.232
385.2209
385.3153
385.3683
385.2171
385.2148
385.3351
386.6379
386.6493
386.6347
386.6672
386.6182
386.6575
386.6247
385.0103
385.0237
385.0104
385.0175
385.0074
385.0175
385.0075
384.9989
384.9989
384.9995
384.9993
384.9988
384.9988
384.9993
385.13
385.0963
385.1159
385.1686
385.138
385.1025
385.121
385.4787
385.6275
385.6509
385.3593
385.3454
385.5154
385.4971
385.0011
384.9999
385.0004
385.0053
385.0013
384.9999
385.0005
384.9996
384.9996
384.9995
384.9995
384.9996
384.9996
384.9995
385.007
385.0094
385.0019
385.0006
385.0056
385.0074
385.0012
384.9994
384.9994
385.0008
384.9999
384.9994
384.9994
385.0007
385.1242
385.1726
385.1826
385.2252
385.2099
385.2856
385.3037
385.7253
385.7399
385.7243
385.3033
385.3191
385.313
385.3352
385.4807
385.4308
385.5909
385.7611
385.5278
385.4943
385.7262
386.3573
386.4765
386.4484
386.2633
386.2574
386.3632
386.3695
385.0097
385.0131
385.0156
385.013
385.0158
385.0214
385.0256
385.0023
385.0013
385.0007
385.0021
385.0036
385.0019
385.001
384.9997
384.9997
384.9997
384.9997
384.9997
384.9997
384.9997
384.9994
384.9992
384.999
384.999
384.9993
384.9991
384.999
385.0364
385.0226
385.0076
385.0797
385.0413
385.0248
385.0089
384.9991
384.9992
384.9992
384.999
384.9991
384.9992
384.9992
385.0002
385.0004
385.0001
385.0006
385.0002
385.0005
385.0001
384.9989
384.999
384.9989
384.9989
384.9989
384.999
384.9989
385.2619
385.1809
385.1181
385.3379
385.2792
385.1922
385.1311
385.533
385.5319
385.5215
385.5279
385.5164
385.5089
385.4935
385.0021
385.0017
385.0019
385.0025
385.0023
385.0019
385.0019
385.1054
385.2562
385.1144
385.0964
385.0459
385.1032
385.0553
384.9996
384.9995
384.9996
384.9997
384.9996
384.9995
384.9996
385.5534
385.5364
385.5346
385.5268
385.5173
385.5072
385.5037
385.1928
385.2056
385.2034
385.204
385.1974
385.2085
385.2067
386.5843
386.4246
386.5822
385.2225
385.2189
385.23
385.2283
384.9997
384.9997
384.9997
384.9997
384.9997
384.9997
384.9997
385.5103
385.4942
385.4817
385.5025
385.4932
385.471
385.4571
386.6759
387.2075
386.8392
386.4
386.3836
386.4708
386.4581
385.7296
385.3301
385.5231
385.4138
385.5872
385.2908
385.4124
384.9999
384.9999
384.9999
384.9999
384.9999
384.9999
384.9999
385
385
385
385
385
385
385
385.1344
385.0778
385.0845
385.1177
385.1191
385.0654
385.0747
385.5809
385.5826
385.5517
385.4856
385.5116
385.4892
385.5012
384.999
384.9991
384.9991
384.999
384.999
384.9991
384.9991
385
385
385
385
385
385
385
385.0018
385.0015
385.0018
385.0015
385.0018
385.0015
385.0018
385.7647
385.5397
385.5986
385.8195
385.8634
385.5673
385.5948
385.0006
385.0019
385.0007
385.0072
385.0007
385.0021
385.0007
385.55
386.1504
385.5591
385.2164
385.4814
385.2308
385.4905
385.4687
385.4987
385.4657
385.4637
385.4751
385.425
385.4376
385.3744
385.1788
385.2174
385.2202
385.2946
385.1491
385.1738
385.0004
385.0003
385.0032
385.002
385
384.9999
385.002
384.9994
384.9995
384.9994
384.9994
384.9994
384.9995
384.9994
385.0012
385.0049
385.0052
385.0011
385.001
385.0048
385.0049
385.0297
385.0258
385.0161
385.0279
385.046
385.0401
385.0248
385.6749
385.8637
385.8688
385.4999
385.5045
385.7255
385.7223
385.6956
385.8806
385.9056
385.5129
385.4682
385.7828
385.7231
385.8371
385.9825
385.9908
385.6148
385.6014
385.8798
385.8791
385.8465
385.9997
386.007
385.6582
385.6413
385.9061
385.8911
385.662
385.8729
385.8763
385.4957
385.4756
385.7284
385.7189
385.7953
385.9479
385.967
385.5618
385.5808
385.8433
385.864
385.8421
385.9954
385.9977
385.6246
385.6287
385.8821
385.8825
385.6779
385.8418
385.8557
385.484
385.4933
385.6853
385.7039
385.871
386.021
386.0384
385.6726
385.6945
385.9223
385.9371
386.056
385.882
386.0613
385.7226
385.7325
385.9531
385.9631
385.8888
386.0519
386.0596
385.7294
385.7145
385.9637
385.9491
385
385
385
385
385
385
385
384.999
384.9992
384.9991
384.9991
384.999
384.9992
384.9991
385.0862
385.019
385.1996
385.0104
385.0858
385.0189
385.1989
384.9999
385
384.9999
385
384.9999
385
384.9999
384.9996
384.9997
384.9996
384.9997
384.9996
384.9997
384.9995
384.9994
384.9995
384.9995
384.9995
384.9994
384.9995
384.9995
384.9992
384.9994
384.9992
384.9993
384.9992
384.9994
384.9992
384.9995
384.9996
384.9996
384.9995
384.9995
384.9996
384.9996
384.9993
384.9994
384.9994
384.9993
384.9993
384.9994
384.9994
385.0766
385.0773
385.1413
385.1164
385.0623
385.0615
385.1167
385.1517
385.1195
385.1238
385.1621
385.1581
385.1308
385.1417
386.0529
385.8636
386.0488
385.7238
385.7309
385.9539
385.964
385.8667
386.0563
386.0476
385.7899
385.7463
386.0372
385.9799
385
385
385
385
385
385
385
386.5773
386.5987
386.5782
386.5964
386.587
386.6077
386.5885
385.2308
385.266
385.4015
385.3781
385.2388
385.2649
385.3947
386.5905
386.5909
386.5842
386.6029
386.5962
386.6029
386.5961
384.9993
384.9994
384.9994
384.9993
384.9993
384.9994
384.9994
384.9992
384.9992
384.9991
384.9991
384.9992
384.9992
384.9991
397.2934
396.6685
388.3845
388.3792
397.2934
396.6709
388.3852
399.2379
404.7142
399.2808
397.2426
393.3062
397.276
393.3373
385.4273
385.2436
385.2649
385.3755
385.3928
385.2188
385.2274
385.0012
385.0009
385.0009
385.0012
385.0012
385.0009
385.0009
386.0917
393.0761
390.7171
385.8952
386.0891
393.0663
390.7076
385
385
385
385
385
385
385
384.9992
384.999
384.9991
384.9991
384.9991
384.999
384.9991
385.0007
385
384.9994
384.9996
385.001
385.0001
384.9994
385.0026
385.0064
385.0235
385.0135
385.0026
385.0062
385.0232
384.9999
384.9999
384.9999
384.9999
384.9999
384.9999
384.9999
385.7894
385.5409
385.3877
385.5074
385.6427
385.4216
385.3071
385.0015
385.0017
385.0017
385.0014
385.0014
385.0017
385.0017
384.9989
384.9989
384.9988
384.9988
384.9989
384.9989
384.9988
385.0279
385.0286
385.0216
385.0331
385.0483
385.05
385.0375
385.0014
385.0009
385.0008
385.0016
385.0021
385.0011
385.001
387.1724
387.0814
387.1927
386.8513
386.9473
386.9506
387.0662
385.2841
385.1323
385.3016
385.1699
385.3824
385.1432
385.1957
384.9991
385.003
384.9999
385.0037
384.9998
384.9999
384.9998
386.3522
385.7987
386.1022
386.5248
385.716
385.9824
386.5329
385.104
385.0867
385.1962
385.1686
385.0979
385.0834
385.1865
385
384.9999
385
384.9999
385
384.9999
385
385.0884
385.0816
385.0648
385.0995
385.1422
385.1321
385.1061
385.0025
385.0036
385.0166
385.0101
385.0015
385.0023
385.0127
384.9988
384.9988
384.9988
384.9988
384.9988
384.9988
384.9988
384.9999
384.9999
384.9999
384.9999
384.9999
384.9999
384.9999
385.0005
385.0005
385.0007
385.0012
385.0006
385.0005
385.0008
385.0033
385.0034
385.0033
385.0006
385.0006
385.0006
385.0006
386.391
386.3093
386.4017
386.1426
386.1764
386.2222
386.2475
385.0927
385.0558
385.0328
385.059
385.0921
385.058
385.0317
386.6009
386.5982
386.6219
386.6331
386.6043
386.6032
386.6275
385.063
385.0648
385.1372
385.1031
385.05
385.0498
385.1064
397.1533
415.7074
409.7457
402.4062
397.1445
415.7019
409.7369
386.6306
386.6191
386.6249
386.6296
386.6382
386.6261
386.63
385.0005
385.0005
385.0007
385.0007
385.0005
385.0005
385.0007
385.5328
385.2855
385.333
385.4097
385.4457
385.2374
385.2668
385.7545
386.1889
385.7778
385.8753
385.5803
385.9635
385.5966
384.9988
384.9988
384.9988
384.9988
384.9988
384.9989
384.9989
384.9988
384.9989
384.9989
384.9988
384.9988
384.9989
384.9989
384.9998
384.9997
384.9996
384.9997
384.9998
384.9997
384.9996
384.9989
384.9989
384.9989
384.9989
384.9989
384.9989
384.9989
384.9997
384.9993
384.9993
384.9999
384.9998
384.9993
384.9993
384.9991
384.9991
384.9992
384.9992
384.9991
384.9991
384.9992
385.0438
385.147
385.0664
385.1174
385.0458
385.1457
385.0668
385.6615
385.7869
385.8113
385.4594
385.4476
385.6433
385.6343
385.2135
385.2688
385.3032
385.2101
385.2564
385.3116
385.3743
386.3063
386.5584
386.6213
385.2092
385.2577
385.2111
385.268
384.9994
384.9994
384.9993
384.9993
384.9994
384.9994
384.9993
385.0155
385.0382
385.0326
385.0265
385.0172
385.0422
385.0361
384.9995
384.9988
384.9988
384.9993
384.9993
384.9988
384.9988
385.0403
385.0138
385.0193
385.028
385.0364
385.0115