/*--------------------------------*- C++ -*----------------------------------*\
| =========                 |                                                 |
| \\      /  F ield         | OpenFOAM: The Open Source CFD Toolbox           |
|  \\    /   O peration     | Version:  1912                                  |
|   \\  /    A nd           | Website:  www.openfoam.com                      |
|    \\/     M anipulation  |                                                 |
\*---------------------------------------------------------------------------*/
FoamFile
{
    version     2.0;
    format      ascii;
    class       volVectorField;
    location    "40000/fluid";
    object      U.gas;
}
// * * * * * * * * * * * * * * * * * * * * * * * * * * * * * * * * * * * * * //

dimensions      [0 1 -1 0 0 0 0];


internalField   nonuniform List<vector> 
4960
(
(4.192044 0.145774 9.331764e-06)
(4.172766 -0.8600729 -0.001679036)
(4.630045 -5.198945 4.143665e-05)
(3.706523 0.09357901 -0.0003586379)
(4.827103 -0.3099731 0.006032187)
(3.575264 0.20208 -0.002535242)
(4.335314 0.1235012 -0.001138913)
(4.070555 -0.09481329 0.008431132)
(7.669004 -4.781969 -0.0004054954)
(-1.048582 -2.08029 0.0001849751)
(4.298353 -0.209796 -0.00235479)
(-0.2186499 1.697211 -0.00795848)
(4.067711 0.2073753 -0.0001921712)
(4.491889 0.09183551 -0.006371)
(-0.280505 -2.060632 0.01345271)
(9.214433 -1.279551 -0.0108533)
(7.934947 -0.8119647 0.003347529)
(4.249966 0.2367959 4.27996e-05)
(4.086552 0.2735684 -1.726028e-06)
(3.916237 -0.01586416 -0.0008760275)
(4.354042 0.6517825 0.0005535413)
(4.27938 0.3320023 0.0001205672)
(4.00397 0.2518567 -1.247468e-06)
(4.387008 0.1708927 -0.000199066)
(7.540211 -0.7445089 -0.000493372)
(3.977713 0.4360552 -0.0005449315)
(4.301012 -0.2071891 -0.003396818)
(3.461685 0.07218584 -0.0003558974)
(6.46289 -0.5432871 0.001499748)
(4.44881 -0.08917469 -0.008049229)
(2.720069 -0.08235986 0.02914739)
(0.07112468 -1.164157 0.004744591)
(6.178666 -0.4541061 0.01002743)
(4.492595 -0.2009804 -0.002643234)
(4.40304 -0.04722803 -0.004574769)
(4.006101 0.2694861 -5.516585e-06)
(2.341573 -1.731177 -0.0003730042)
(4.502254 0.1390698 -0.003992262)
(4.529102 -0.2952066 -0.003001204)
(4.381024 0.06856139 -0.002687902)
(4.212256 -0.4457449 -0.001997314)
(4.301336 -0.1555241 -0.002074044)
(4.24697 0.2135585 3.553888e-05)
(4.390562 0.2829528 0.003769177)
(-0.178733 -1.242146 0.01270213)
(4.552666 0.487716 0.003947494)
(4.008002 0.3145514 -3.931788e-05)
(4.43431 -0.2622886 0.003082518)
(4.027236 0.3597299 -6.794127e-05)
(-0.2034514 -2.002935 -0.002215589)
(4.710412 -0.5300668 -0.0006528544)
(3.143391 -3.371455 -0.0007168798)
(8.108305 -4.527843 -0.0007465952)
(4.192813 -0.7244643 -0.001645446)
(4.12642 0.3070734 3.202117e-07)
(7.649568 -3.227992 -0.002464387)
(4.096072 0.3422095 -1.310341e-05)
(1.942228 -3.961499 -0.0001033691)
(2.044392 0.7793444 -2.197825e-06)
(2.174037 -3.547904 -0.0003240599)
(2.321541 -0.5413642 0.004298377)
(2.100245 -0.7239327 -0.0001730186)
(4.017624 0.2677785 -1.824161e-06)
(4.014529 0.1315539 -1.348296e-07)
(-1.166282 -0.3564131 0.08982634)
(4.596764 -0.3987834 -0.005121865)
(-0.3078103 -0.8073091 0.05067119)
(3.111678 -0.7870232 -0.0004617521)
(-0.7531825 0.4477853 -0.02587381)
(2.980074 -0.3155296 -0.0002967091)
(4.043848 0.4008673 -0.0001107131)
(5.465445 -5.291441 8.518951e-05)
(3.138233 -4.338653 -0.0002639265)
(4.451605 -0.03915392 -0.00508177)
(4.623442 -0.6075043 -0.002435086)
(4.466288 -0.2999778 0.002588933)
(1.900818 -0.04174554 -0.0001524832)
(4.027669 0.3103137 -1.245367e-05)
(4.529981 0.3772256 0.001300696)
(-0.2983263 1.854795 0.2575819)
(4.252669 0.2304577 4.53893e-05)
(3.935275 0.601674 -0.002117324)
(4.362437 -0.1050424 0.001037851)
(3.985769 0.1350877 -4.096287e-07)
(6.526862 -3.044783 -0.001938189)
(3.893106 -3.072221 -0.0008097942)
(4.458618 -0.1621165 -0.004183628)
(4.475218 -0.200189 -0.003526633)
(4.450216 -0.1459125 -0.006879035)
(4.460424 0.010327 -0.006479556)
(5.040156 -1.273628 -0.003818435)
(4.738408 -0.8085368 -0.0008291578)
(4.014584 0.5294191 -0.0008556691)
(3.998203 0.2756065 -3.668591e-05)
(4.101123 -3.884036 -0.0007560903)
(0.03500582 1.467055 -0.01428851)
(4.474795 0.8988608 0.002368242)
(4.016823 0.2731305 -2.582297e-06)
(6.81295 -2.878385 -0.002149588)
(4.48549 0.5377867 0.001784769)
(5.210297 -1.671132 -0.002828275)
(4.529263 -0.4987394 -0.003063762)
(3.111707 0.04672527 -0.0003255833)
(6.303183 -2.35066 -0.003720903)
(4.772892 -2.415454 -0.001445279)
(3.989941 0.2947296 -0.0001015954)
(4.236671 0.1384183 1.778422e-05)
(3.906686 0.1069922 -0.0003511221)
(4.198941 0.1284441 2.849171e-05)
(3.706186 -0.7531415 -0.0009503904)
(4.758331 -1.827039 -0.002667193)
(6.070766 -4.261646 -0.0005703585)
(6.998479 -1.573967 -0.002705819)
(6.085322 -2.511855 -0.002601809)
(6.738218 -1.979992 -0.002922835)
(-0.5797446 -1.092129 -0.0002348541)
(4.84695 -1.311559 -0.001923942)
(4.604732 -1.029363 -0.002834516)
(5.487953 -2.128865 -0.001807898)
(4.50478 0.4793395 0.001877618)
(4.20048 0.3673539 4.768215e-05)
(6.330096 -4.906614 -3.187911e-05)
(2.612225 0.009904505 -0.0002494449)
(5.788444 -0.5176178 0.01778233)
(4.394276 -0.07166106 -0.01014437)
(4.01785 0.1445635 -6.426439e-07)
(4.200878 0.4462053 0.008091854)
(7.684822 -1.878945 -0.005920108)
(1.765053 -0.9733129 -0.0001718048)
(6.697381 -3.8972 -0.001039443)
(0.8611396 -0.1337116 -0.0001129429)
(3.998768 0.3014367 -5.39737e-05)
(3.980134 0.2867618 -0.0002639478)
(4.001232 0.2650134 -1.49649e-05)
(7.279194 -2.456308 -0.004699916)
(4.480566 -0.3279834 -0.004979048)
(6.728794 -1.409789 -0.005278246)
(4.001979 0.2641569 -1.101831e-05)
(4.588205 -0.6821436 -0.0008268377)
(4.450808 -0.09619008 -0.00603202)
(4.45586 0.01543843 -0.006972054)
(4.416166 0.2976765 0.0005471772)
(0.4055593 -0.3922846 -0.05170779)
(4.107454 0.381352 -0.006495977)
(1.978752 -0.6217274 -0.01519536)
(0.005726178 0.9475561 -0.0005365148)
(1.233873 -0.9461281 -0.008854065)
(4.456618 -0.1479255 -0.004920241)
(3.971379 0.2661884 -0.002500071)
(5.947276 -3.423077 -0.001335992)
(6.472212 -1.788679 -0.005316827)
(0.2832762 -0.06096015 -0.0306157)
(0.3971791 -0.08150443 0.001670043)
(9.692279 -3.168456 0.0001904687)
(4.079031 0.3244687 -1.01888e-05)
(4.556959 -0.3978814 -0.005498478)
(-1.818794 0.3298791 0.03875809)
(3.942756 -0.03103911 -0.01191887)
(-0.1393554 1.10342 -0.02695457)
(-0.04010339 0.9498496 0.009946614)
(-0.1668728 3.533866 -0.01390578)
(-0.062761 4.248406 -0.0025923)
(0.6959079 0.6232886 -0.0004453319)
(3.98849 0.1380469 -5.420039e-07)
(0.0675361 0.3545936 -0.0052715)
(9.448393 -0.1864736 -0.00528561)
(4.484302 -0.54963 -0.002629077)
(4.029074 0.2967001 -6.176785e-06)
(8.410714 -0.1617892 -0.002741068)
(1.70539 -2.442951 -0.0003175649)
(4.646316 -0.4156725 0.007785202)
(4.025642 0.3166221 -1.837981e-05)
(7.540275 -0.1235948 0.003505278)
(4.067188 0.4771321 -0.0003331684)
(6.756089 -0.06453703 0.009409448)
(4.458402 0.5137629 0.001589993)
(4.039163 0.3538609 -4.881423e-05)
(0.2305525 0.4742425 -0.001654195)
(1.994205 1.170753 -2.033942e-05)
(-0.01961306 1.013744 -0.00473171)
(2.001725 1.154773 -3.31516e-05)
(2.276048 2.014572 -0.01277906)
(-0.04827552 0.8378734 -0.001150478)
(4.309208 -0.1246955 -0.005832641)
(1.520632 0.09080591 -0.004844609)
(-0.1442431 -0.8695016 -0.006200552)
(-0.04647906 4.323558 -0.05704884)
(4.553247 0.7182957 0.00448278)
(4.078796 -0.2958392 -0.001501726)
(1.575191 -0.4018961 0.00361537)
(2.021516 0.9476862 -4.169262e-06)
(4.299354 0.1345244 -0.0005487313)
(4.219997 0.03208914 -0.001256618)
(0.03265005 -0.007522065 -0.003188939)
(4.168803 -0.006481989 -0.001088839)
(4.361228 0.3192355 0.0006317942)
(4.001147 -0.26081 -0.001079128)
(-0.2900238 1.294753 0.0002566417)
(3.819698 -0.4299577 -0.0009234128)
(6.090146 -0.03985499 0.01846491)
(-0.1289776 0.4155435 0.002826932)
(2.566552 0.06211308 -0.01382288)
(3.446616 -0.5193897 -0.0005743875)
(4.433965 -0.1964388 -0.002865998)
(4.436449 -0.1314204 -0.005609824)
(4.449215 -0.04840446 -0.005221976)
(4.463341 0.08005349 -0.004024008)
(4.475761 0.1158827 -0.00309676)
(4.487203 0.1546649 -0.001424417)
(5.903016 -1.913629 -0.002882123)
(3.968301 -0.05840323 0.003968886)
(4.514692 0.1859557 -0.0007898237)
(5.283315 -1.184536 0.0018464)
(4.262316 -2.524653 -0.001257649)
(4.496742 0.1950927 4.308299e-05)
(2.153485 0.00827251 -0.09340669)
(4.068735 0.2649923 -1.524637e-06)
(6.220632 -1.10318 -0.007911808)
(5.032285 -2.325198 -0.001795201)
(0.1627557 4.714437 -0.001727)
(4.115872 0.117367 -3.405599e-05)
(3.941937 0.2888889 -0.001087987)
(4.147716 0.3823094 -6.154294e-06)
(4.396546 0.7614336 0.0005955238)
(-1.821808 2.039192 -0.003935542)
(2.923541 -0.963698 -0.0004219395)
(-1.93216 -1.117499 -8.373585e-06)
(5.757031 0.03438626 0.009161508)
(4.527918 0.2349622 0.001401874)
(3.902224 0.1106978 -0.004075929)
(0.463165 -0.955631 -0.03214346)
(4.33181 0.1731725 -0.005162876)
(5.003098 -5.763462 0.0001553216)
(0.2130551 1.821887 -0.02291026)
(5.759714 -0.8901905 0.008365424)
(3.903162 0.1375956 -0.002728544)
(3.962505 0.08850058 -0.0003771733)
(0.1504186 3.948362 0.009228343)
(3.802264 0.08920224 -0.002479705)
(3.987499 0.3094138 -0.0001549447)
(5.349217 -0.001514879 0.003542931)
(3.442075 -0.1640358 0.00293187)
(4.140786 0.2649074 7.131537e-07)
(5.571686 -2.778155 -0.001933197)
(3.97448 0.3011556 -0.0003396075)
(4.518632 0.1977345 -0.001307628)
(1.181049 -0.1856607 -0.05062371)
(8.586445 -5.337985 0.0008427737)
(5.191477 -3.479358 -0.001126683)
(2.509623 1.072497 0.01700025)
(4.984375 -0.3025335 0.004356427)
(6.078538 -1.287117 -0.01161156)
(4.470185 -0.8194524 -0.001903921)
(4.957275 -1.071281 -0.00120413)
(4.541273 -1.888504 -0.00214858)
(4.7601 -0.03114564 0.0227898)
(4.205753 0.1731583 -0.0001611832)
(4.470101 0.6357775 0.001674952)
(4.53004 0.4312969 0.002562634)
(4.116938 0.633734 -0.001183535)
(3.924807 0.3063773 -0.001175644)
(5.184442 -1.015544 0.0008035684)
(1.26236 -0.9207748 -0.02636068)
(1.377847 0.1225731 0.2721306)
(-0.3781336 -2.661016 0.0005690948)
(4.23058 0.1343036 2.588961e-05)
(3.900955 -0.5139305 -0.001189707)
(5.660327 -1.05783 0.005765374)
(2.02123 1.029157 -7.5612e-06)
(3.548526 -0.03663215 -0.01365316)
(0.382757 -1.071858 -0.01697094)
(4.557215 0.2940246 0.004305574)
(4.522999 0.2379505 0.001141566)
(0.6942467 -1.238494 0.00508623)
(4.262108 0.04306221 0.019337)
(4.053718 1.077215 -0.008155842)
(4.245485 0.2771229 5.251983e-05)
(4.52023 0.6694016 0.002129329)
(4.219765 0.8503921 -0.002593186)
(4.247062 -0.2489898 0.004435493)
(0.0398258 5.338671 0.01745347)
(2.8066 -0.08634173 0.01999479)
(0.2476895 3.080474 -0.02936881)
(5.72593 -1.702834 -0.002485207)
(4.39547 -0.4404932 -0.00288821)
(4.155033 0.3330699 7.374287e-06)
(4.446392 0.0558934 -0.004010715)
(3.962206 1.48609 -0.01307393)
(4.349643 0.5707105 0.000647207)
(3.854888 0.2474621 -0.001588622)
(4.395123 0.5554008 0.001041285)
(3.531759 1.721601 0.01244254)
(-0.1982051 -0.09819984 -0.0220205)
(4.511391 -1.349556 -0.002423555)
(10.32739 -3.981494 -0.00399761)
(3.995293 0.6983294 -0.002894544)
(-0.9705572 0.1168405 -0.1369059)
(-0.3000635 0.2461317 -0.01402273)
(1.926522 2.183096 0.001610953)
(4.164142 0.2775186 6.339766e-06)
(0.524849 0.01009319 -0.02085557)
(-0.2411305 -0.3558108 0.08902974)
(2.607666 0.6388157 0.03755373)
(4.049881 0.3345374 -2.211079e-05)
(2.01237 1.21054 -5.399866e-05)
(4.129108 0.05652984 -0.01623483)
(-0.1296513 0.407627 0.2560024)
(4.398218 0.2589359 0.0003970995)
(4.004622 0.2410955 -2.119412e-07)
(3.604693 -0.9014736 -0.0008825641)
(2.722412 0.004314238 0.01253134)
(3.327196 0.9574458 -0.008315952)
(9.471529 -4.738193 6.200276e-05)
(1.074092 0.03738739 0.02126841)
(3.591339 0.5438475 0.02416188)
(4.552419 0.2955924 0.002752112)
(4.261356 0.3693304 0.0001299012)
(4.47649 0.05373829 -0.007409927)
(8.412103 -2.289873 -0.005455513)
(2.620668 0.05983564 0.02913068)
(2.360065 0.08778904 0.06034769)
(2.253384 0.147354 -0.009402562)
(2.380378 0.0398643 0.04889746)
(2.399606 0.08901551 0.01757847)
(2.300141 0.09208219 0.01896461)
(2.388364 0.09974941 0.03449587)
(2.934867 0.04826523 0.02967258)
(2.140444 0.110358 -0.006139276)
(1.615681 0.05654294 0.09015046)
(2.13051 0.07118283 0.00654628)
(4.013481 0.2920553 -1.02374e-05)
(4.345766 0.4793086 0.0005988507)
(3.814804 -2.463431 -0.0008898144)
(3.998154 0.3148 -7.426672e-05)
(4.173294 -0.05542553 -0.001315485)
(4.230874 0.3220958 5.856056e-05)
(4.193108 0.6754857 -0.001049473)
(4.205126 0.3483383 4.471149e-05)
(4.275944 0.4213199 0.0002035205)
(4.105687 0.09080086 -0.02132714)
(-0.2674977 -1.602364 -0.005080459)
(1.549656 0.04459896 0.09082282)
(1.217062 -0.009593449 0.2220526)
(3.97025 0.2713974 -0.000655394)
(0.2012509 0.2978048 0.001698213)
(3.642546 1.359038 0.03187225)
(0.2359079 0.2420239 -0.0268149)
(4.317079 0.2393872 0.0001445628)
(4.359083 0.2395286 0.0002322873)
(3.698473 -4.003958 -0.0006285082)
(6.278829 -5.912956 0.0001975298)
(3.515285 0.009845243 -0.02739807)
(3.187504 -0.2360788 -0.0003429803)
(2.911109 -3.094568 -0.0005422994)
(2.030223 0.6331727 -1.131365e-06)
(4.357128 0.694013 0.0003913021)
(4.429663 0.0005373895 -0.00383761)
(4.258648 1.109747 -0.007982145)
(4.033249 0.2832826 -3.16447e-06)
(3.342275 -0.2043829 -0.01964594)
(3.954661 -1.106188 -0.001327458)
(4.464244 0.2633651 0.0009005103)
(4.743367 -0.5454584 0.001691788)
(4.37824 -0.6568532 -0.001521315)
(0.5599439 3.025324 -0.01062759)
(12.38237 0.1673423 -0.7531016)
(1.764182 0.4434388 -0.0002528095)
(0.9113676 2.012154 0.005435434)
(4.324257 0.9306391 0.007614046)
(4.038944 0.2673398 -1.483935e-06)
(5.457484 -0.740711 0.008980473)
(4.556939 0.5618862 0.003725173)
(4.465997 0.2406873 0.0007219223)
(4.043154 0.2918425 -4.13522e-06)
(4.32011 -0.5790786 -0.001806018)
(3.983662 0.1264601 -0.004301548)
(-0.7817525 3.197811 0.2698576)
(4.303813 -0.00168201 -0.01451679)
(0.365069 -0.4613772 -0.01610366)
(4.239379 0.3542644 0.00608633)
(1.933925 -3.205087 -0.0003382711)
(-0.107731 -0.3263803 -0.006882006)
(3.619563 -0.2217187 -0.0005359886)
(3.336569 -0.015558 -0.033652)
(3.089016 -0.01025836 -0.02494615)
(4.460905 0.1989525 0.0001700789)
(4.452103 0.1607881 -0.0008264785)
(4.362897 -0.1243063 -0.004414237)
(4.436531 0.09020502 -0.003264426)
(4.393615 -0.0477312 -0.004009165)
(4.333851 0.2146736 0.0001326535)
(4.21957 1.318198 -0.009020191)
(3.489493 -0.01372028 -0.006916132)
(3.836493 -0.06573955 -0.006748531)
(1.025614 4.245634 -0.01327602)
(4.316885 0.2506914 0.0001639541)
(3.578226 -0.05935802 -0.003501518)
(4.524914 0.2947531 0.001600053)
(4.448933 0.07768945 -0.01086316)
(4.004291 0.2440776 -3.585809e-07)
(4.480194 0.1278266 -0.00922505)
(4.442256 0.124598 -0.002000967)
(4.300302 0.4841559 0.0003477498)
(4.714481 -0.3942496 0.0110685)
(4.542703 0.4137797 0.007413245)
(4.200592 -0.04857958 -0.007730002)
(4.003921 0.2543381 -1.895496e-06)
(-0.4129543 -0.4393585 -0.0117142)
(0.4401236 1.220448 0.01226411)
(0.101662 -0.1911668 0.01125401)
(2.588525 -0.1914532 -0.006414901)
(2.342361 0.4311095 -0.01787368)
(4.284367 0.05953102 -0.001678037)
(0.2572539 -0.07644209 -0.003175678)
(3.997602 0.2586655 -5.24518e-05)
(0.25382 -1.333966 0.002806401)
(0.07299678 5.659647 0.007881349)
(3.941955 0.4459242 -0.000850893)
(4.293376 0.1873642 2.169305e-06)
(2.017409 0.552032 -4.908816e-07)
(4.119599 0.4566075 -0.0001315095)
(0.2909472 4.632806 -0.07947102)
(5.41929 -3.795171 -0.0008627988)
(4.366091 -0.1945681 -0.002880054)
(4.184884 0.1625129 -0.0002171714)
(4.362505 -0.382896 -0.00274644)
(2.760117 0.2662425 0.007653882)
(0.8014747 -3.030609 -0.0001180157)
(1.284695 4.503453 0.02673695)
(4.926652 -0.6604065 -0.0005958239)
(4.473658 0.4304755 0.00149626)
(4.026088 -0.04937027 -0.009776533)
(2.015669 1.115028 -1.281599e-05)
(4.285281 0.369831 0.0001898205)
(3.770237 0.7130335 -0.005673079)
(4.555165 0.3691281 0.005864748)
(4.039945 -0.0815637 0.001551778)
(4.168395 0.09797161 -0.0004504688)
(4.142013 0.5378767 -0.0003796712)
(3.017166 -0.5826132 0.0008740447)
(0.1729375 -2.872879 -0.0004560197)
(4.354565 0.2660324 0.0002475676)
(4.388145 0.5088647 0.004770286)
(-1.395359 -0.8867902 -0.01244388)
(4.96917 -0.6400187 -0.0007841074)
(0.2037724 0.27107 -0.04921559)
(4.190198 0.5620399 -0.0003014323)
(5.056846 -0.5338023 -0.008857632)
(7.441449 -5.737292 0.0001833639)
(4.41724 -0.2784682 -0.00311891)
(3.76655 0.3453862 -0.001884541)
(4.014686 0.2877639 -7.125276e-06)
(4.092248 -0.1369558 -0.0007255197)
(0.03905272 -0.8989355 -0.007616451)
(4.524492 0.3256948 0.001366832)
(2.044143 0.3696873 -1.224027e-07)
(-0.8066615 3.314615 -0.02456069)
(-0.9744724 -1.531401 0.006767459)
(3.989651 0.2886326 -0.0001231958)
(3.962796 0.3383909 -0.0004617812)
(4.395688 -0.3035562 0.004984282)
(4.006129 0.3010502 -2.876364e-05)
(0.0251027 1.544824 -0.007163007)
(3.702605 -1.689681 -0.001130427)
(-0.0892943 5.431371 0.03022696)
(2.536857 -2.501051 -0.0003909237)
(4.374567 0.2873614 0.0004090499)
(3.970637 0.262301 -0.001003212)
(0.1296025 -0.113002 0.001262775)
(4.746609 -0.7003357 0.001709524)
(2.946466 0.09724907 0.00892923)
(4.158794 0.4346936 0.01209937)
(4.132034 0.04644807 -0.0008160386)
(4.117103 0.4150617 -5.664176e-05)
(4.538165 -0.2820875 0.01259999)
(5.403812 -0.8301218 0.01163592)
(4.410628 0.001339151 -0.006556309)
(4.198844 0.09332925 -0.0006842084)
(3.16753 -2.387949 -0.0007625925)
(4.02029 0.2562648 -8.033524e-07)
(-0.4217432 -2.535434 -0.02529815)
(4.169107 0.1324264 1.322159e-05)
(4.23004 0.1304392 1.7641e-06)
(4.115314 0.1047414 -0.0003320157)
(4.250102 0.130093 5.84753e-06)
(3.713814 0.542818 0.007447579)
(3.816862 0.3793536 0.009356199)
(3.825638 -2.224979 -0.001138286)
(0.2819547 0.2656551 -0.009820036)
(2.042982 0.2125063 4.749165e-10)
(-1.738957 -0.8947227 0.0001902435)
(1.883508 -4.465925 -1.310508e-05)
(2.353482 0.1536672 0.009341878)
(1.63895 -4.187746 0.0001035649)
(4.342083 0.3054786 0.0004257038)
(2.623303 -0.2088007 -0.028934)
(3.159849 0.07974474 0.03811268)
(4.073622 0.3555817 -3.15557e-05)
(5.747274 -4.403742 -0.0004177297)
(4.112524 0.4282132 0.009582286)
(4.092397 0.4380661 -0.000110233)
(3.335866 0.09726086 0.01384464)
(0.3574246 0.8501933 -0.03647605)
(2.909277 0.1168987 -0.002946259)
(3.240806 0.05730067 0.0078126)
(3.574885 -5.431494 5.174754e-05)
(11.5042 -2.773875 -0.0003527032)
(1.86343 0.8162103 -7.078483e-05)
(2.571585 1.020763 0.01377468)
(-1.581752 -0.2513831 -8.41032e-05)
(7.937297 -2.954755 -0.002617011)
(4.04399 0.3130679 -9.083247e-06)
(2.833511 0.204475 0.01281663)
(4.20822 0.3171195 3.253231e-05)
(3.149444 0.3735451 -0.01375363)
(4.057049 0.1142669 -0.0001489141)
(1.941169 0.5211601 -0.01236854)
(2.602851 -0.04354055 0.04837144)
(0.15103 -3.081384 -0.05561168)
(4.224886 0.4844821 1.975797e-05)
(4.418634 0.4539385 0.001101074)
(2.350559 0.04593776 0.01334214)
(1.149467 -3.745897 0.0004203445)
(-0.03570416 6.022793 -0.0231886)
(10.98435 -0.3210862 0.01148848)
(3.816124 -0.08993768 -0.005129824)
(4.007348 0.3600138 -0.0001165666)
(4.080548 -0.06667827 -0.002810279)
(4.392282 0.1877645 3.688735e-05)
(4.371477 0.3976889 0.0006864791)
(4.442698 -1.707603 -0.001817725)
(4.27811 0.2878482 9.258734e-05)
(4.059399 0.3373813 -1.866471e-05)
(0.09010641 1.182866 -0.02730429)
(0.09905078 5.616769 -0.1360276)
(2.937324 -4.66397 -5.23443e-05)
(3.950369 0.1313594 -0.0006831524)
(3.989859 0.2400939 -0.0004593353)
(9.247258 -3.571918 -0.00109842)
(-2.474737 -0.5788325 -6.183034e-05)
(4.400523 0.2398397 0.0003794962)
(2.950092 0.05774983 0.0249993)
(0.4088091 -1.115023 -0.01748068)
(4.160325 0.3241693 1.180099e-05)
(3.917282 -0.0742424 0.02464263)
(3.171836 0.6161547 0.001382289)
(-0.2340723 1.264158 0.0009103065)
(3.001842 0.04940414 0.01754766)
(4.361327 -0.08206281 -0.003046386)
(2.092561 0.8341698 -0.02569955)
(3.974678 0.01127706 0.004771043)
(3.720641 0.4483722 0.01041189)
(4.190955 -0.1023197 -0.004379732)
(2.070799 -0.007184068 -8.688763e-09)
(3.989811 0.2734921 -0.00012792)
(4.253625 0.1128097 -0.0007944593)
(4.550576 0.3289476 0.003038388)
(4.089294 -0.07069271 -0.006282689)
(9.805186 -1.448644 -0.01290555)
(3.975232 0.2233014 -0.0002943869)
(3.997232 0.2560833 -6.515975e-05)
(3.995918 0.2471111 -0.0001346653)
(4.750175 -0.4912813 0.006183888)
(3.720044 -0.04740623 0.01886301)
(1.951739 -0.6861503 0.01825187)
(4.303501 0.007281366 -0.01468448)
(3.985458 0.3425648 -0.0002165919)
(4.332345 0.167949 -9.951383e-05)
(4.314474 0.2178544 0.0001045239)
(4.080215 -0.03595065 -0.0007269641)
(4.301809 -0.01957409 -0.002346993)
(3.624633 -0.0927429 -0.009303779)
(-0.4055048 -1.101828 0.002652371)
(0.6371377 -2.81023 -0.0001539366)
(2.619021 -0.00575758 0.001873927)
(3.840521 -0.09987315 -0.0006003358)
(3.924463 -4.555796 -0.0002632355)
(0.311936 -2.800064 0.003922868)
(4.308499 0.4185457 0.000309461)
(-0.4539313 -0.4215341 -0.004630208)
(4.204743 -0.02854231 -0.007573601)
(4.444479 0.3425711 0.001049842)
(4.223384 0.2926416 3.019614e-05)
(3.284084 -2.079256 -0.0008032843)
(-1.161929 -1.419586 -0.02104827)
(3.995453 0.2439681 -0.0001721022)
(3.985597 0.265643 -0.0002564052)
(-0.2055339 -2.538685 -0.008816236)
(-3.232497 -0.2657217 1.28009e-05)
(4.417626 0.023718 -0.003570504)
(4.330706 -0.002762999 -0.002501198)
(4.278557 -2.075888 -0.001528921)
(3.776245 0.107262 -0.02361664)
(4.06092 0.3939 -7.638198e-05)
(0.6160841 -3.053407 -0.003326763)
(-0.4411478 1.686035 -0.01312117)
(4.029258 -0.08257233 0.02601879)
(-0.4334845 -1.776896 -0.01668642)
(-0.268358 0.7213438 0.001093518)
(4.005436 0.3816615 -0.0001482736)
(1.898022 0.3672522 -1.806687e-08)
(4.257302 0.1731423 -9.536081e-05)
(5.072893 -4.4864 -0.0003767895)
(4.331828 -0.09916389 -0.0006383549)
(4.001766 0.2469337 2.042808e-08)
(5.117526 -5.208264 9.448904e-05)
(4.242924 0.2069494 2.134644e-05)
(-0.5730197 -0.9744739 0.006197317)
(4.008057 0.1152226 -0.000302512)
(4.165958 -0.2053705 0.006420316)
(4.094905 -0.07838682 -0.005783726)
(-0.3808608 0.143707 -0.005926542)
(-0.4912894 0.2767954 0.003895243)
(3.483235 -1.589686 -0.0009211565)
(3.729002 -0.03897517 0.01876806)
(1.341391 -0.3275764 -0.002603333)
(3.944866 -0.2187479 0.01703067)
(4.173935 0.2658356 6.800314e-06)
(1.781646 -0.2573387 -3.841145e-09)
(-4.096732 0.03631459 2.860944e-06)
(4.219398 0.1465033 1.354837e-05)
(4.192072 0.1457515 9.331763e-06)
(4.219429 0.1464842 1.354837e-05)
(4.217891 0.2652503 1.335848e-05)
(4.229219 0.2611601 1.897232e-05)
(4.217932 0.2651878 1.335848e-05)
(4.229263 0.261094 1.897232e-05)
(3.995195 -0.9342399 -0.001374219)
(4.039676 -0.8028384 -0.001351461)
(4.156887 -0.9972591 -0.002027313)
(4.180974 -0.8358112 -0.001679036)
(4.002383 -0.9197637 -0.001374219)
(4.046824 -0.7820881 -0.001351461)
(4.170551 -0.978666 -0.002027313)
(3.996968 -4.954791 -7.378511e-05)
(4.023267 -5.145681 7.875143e-06)
(4.482588 -4.95292 -9.06025e-05)
(4.627815 -5.201544 4.143667e-05)
(3.995611 -4.956235 -7.378512e-05)
(4.021274 -5.147529 7.87515e-06)
(4.481387 -4.954841 -9.060248e-05)
(3.596428 0.08445505 -0.0003589965)
(3.70635 0.09417801 -0.0003586379)
(3.59632 0.0850408 -0.0003589965)
(3.692344 0.09725961 -0.0003669958)
(3.790788 0.1256309 -0.0003578585)
(3.692184 0.09907692 -0.0003669958)
(3.790537 0.1274122 -0.0003578585)
(4.905518 -0.4078203 0.005493243)
(5.057039 -0.4473825 0.001861704)
(4.706805 -0.2703656 -0.001414096)
(4.850464 -0.2161914 0.006032187)
(4.889414 -0.3444334 0.005493243)
(5.042522 -0.3687209 0.001861704)
(4.688903 -0.1922145 -0.001414096)
(3.689956 0.2969005 -0.002149443)
(3.451336 0.3253443 -0.002965028)
(3.621128 0.4008613 -0.00257937)
(3.568371 0.2156483 -0.002535242)
(3.686322 0.3025396 -0.002149443)
(3.443941 0.3373984 -0.002965028)
(3.611621 0.4121184 -0.00257937)
(4.342327 0.1404557 -0.0006219165)
(4.377301 0.1367718 -0.0009523412)
(4.3733 0.1186456 -0.001530012)
(4.330654 0.126025 -0.001138913)
(4.338988 0.1410496 -0.0006219165)
(4.372044 0.1382366 -0.0009523412)
(4.366563 0.1229431 -0.001530012)
(3.777189 -0.09056868 0.01547498)
(3.914597 -0.04489496 0.02477008)
(3.977452 -0.1711754 0.002882768)
(3.925492 0.03542162 0.008431132)
(3.570433 0.09373427 0.01547498)
(3.73407 0.1205862 0.02477008)
(3.806022 0.01489065 0.002882768)
(7.110046 -4.60253 -0.0004445116)
(7.470877 -4.416101 -0.000779903)
(7.241674 -4.974985 -0.0001972204)
(7.690211 -4.785457 -0.0004054954)
(7.104087 -4.623772 -0.0004445116)
(7.474867 -4.425274 -0.000779903)
(7.246362 -4.984365 -0.0001972204)
(-0.6866093 -2.226234 1.845587e-05)
(-1.355065 -1.775343 5.723575e-05)
(-0.4570586 -2.518687 8.246167e-05)
(-1.047598 -2.080883 0.0001849751)
(-0.6862622 -2.226442 1.845581e-05)
(-1.354891 -1.775659 5.723577e-05)
(-0.455929 -2.518703 8.246164e-05)
(4.252197 -0.2814639 -0.002161479)
(4.305803 -0.2752981 -0.002695715)
(4.237723 -0.2048995 -0.001952374)
(4.299205 -0.1792413 -0.00235479)
(4.253234 -0.2564281 -0.002161479)
(4.3063 -0.2448082 -0.002695715)
(4.238054 -0.1813421 -0.001952374)
(0.04658562 1.14725 -0.001729737)
(-0.05648216 1.668172 -0.0039125)
(-0.1151321 1.171672 -0.006206907)
(-0.2927167 1.70805 -0.00795848)
(-0.03162435 1.143257 -0.001729737)
(-0.1222033 1.688543 -0.0039125)
(-0.218671 1.158161 -0.006206907)
(4.067065 0.208038 -0.0001921712)
(4.08716 0.1367698 -0.0002784864)
(4.053034 0.1588181 -0.0001930074)
(4.098445 0.1602129 -0.0002561732)
(4.086271 0.1384792 -0.0002784864)
(4.052389 0.1600493 -0.0001930074)
(4.097676 0.1614269 -0.0002561732)
(4.484687 0.06922677 -0.007048187)
(4.489291 0.06932097 -0.007891939)
(4.480926 0.04970278 -0.007338913)
(4.471935 0.1202772 -0.006371)
(4.461154 0.1043142 -0.007048187)
(4.465187 0.1199164 -0.007891939)
(4.454853 0.09827642 -0.007338913)
(-0.3142068 -2.455663 0.002455342)
(-0.2243786 -1.906339 -0.002990673)
(-0.2064781 -2.382655 0.002047931)
(-0.2976864 -1.921914 0.01345271)
(-0.359939 -2.402377 0.002455342)
(-0.2541975 -1.748082 -0.002990673)
(-0.2446735 -2.383179 0.002047931)
(8.757488 -1.569699 -0.009608932)
(9.257232 -1.768128 -0.01224219)
(8.787464 -1.112287 -0.009169843)
(9.424484 -1.260875 -0.0108533)
(8.807245 -1.555963 -0.009608932)
(9.231072 -1.696749 -0.01224219)
(8.947775 -1.051746 -0.009169843)
(8.283379 -1.326775 -0.002953142)
(7.899477 -1.151693 -0.003081566)
(8.349586 -0.9053126 -0.0001056223)
(7.945282 -0.8292439 0.003347529)
(8.339496 -1.404543 -0.002953142)
(7.903992 -1.255368 -0.003081566)
(8.428779 -0.9073632 -0.0001056223)
(4.244571 0.2433002 3.801318e-05)
(4.262519 0.2536385 6.185757e-05)
(4.267217 0.24443 6.792315e-05)
(4.250055 0.2365847 4.27996e-05)
(4.24466 0.2431255 3.801318e-05)
(4.26267 0.2533192 6.185757e-05)
(4.267367 0.2440541 6.792315e-05)
(4.098049 0.3006431 -3.377006e-06)
(4.1037 0.280907 -1.335078e-06)
(4.081885 0.2906928 -3.063231e-06)
(4.086551 0.2735405 -1.726028e-06)
(4.098048 0.3006347 -3.377006e-06)
(4.103702 0.2808859 -1.335078e-06)
(4.081881 0.2906733 -3.063231e-06)
(3.671666 0.02447255 -0.0114568)
(3.74855 0.009695536 -0.00835532)
(3.881056 0.01282654 -0.008748754)
(3.819207 0.06917875 -0.0008760275)
(3.5029 0.1310131 -0.0114568)
(3.553412 0.07834269 -0.00835532)
(3.780245 0.09569149 -0.008748754)
(4.29647 0.5397479 0.006466184)
(4.096454 0.583017 0.00920079)
(4.013788 0.4458462 0.004357504)
(4.367855 0.6196358 0.0005535413)
(4.308926 0.505365 0.006466184)
(4.12922 0.5493183 0.00920079)
(4.083424 0.4247479 0.004357504)
(4.274632 0.3083085 8.631747e-05)
(4.303294 0.3337478 0.0001860563)
(4.296393 0.3150814 0.0001168631)
(4.279779 0.3314056 0.0001205672)
(4.274934 0.3078445 8.631748e-05)
(4.303793 0.3327054 0.0001860563)
(4.29675 0.3143063 0.0001168631)
(4.007287 0.2569254 -1.300698e-06)
(4.004143 0.2493757 -8.00716e-07)
(4.007158 0.2603378 -1.88018e-06)
(4.003969 0.2519369 -1.247468e-06)
(4.007286 0.2569932 -1.300698e-06)
(4.004143 0.2494676 -8.00716e-07)
(4.007156 0.2604026 -1.88018e-06)
(4.34914 0.1596786 -0.0002579946)
(4.355871 0.1753719 -6.611095e-05)
(4.380826 0.1541069 -0.0005025813)
(4.383857 0.1689361 -0.000199066)
(4.346627 0.1588055 -0.0002579946)
(4.353877 0.1737093 -6.611095e-05)
(4.376854 0.15346 -0.0005025813)
(7.192381 -1.017224 -0.01125267)
(7.544269 -1.055232 -0.0006913145)
(7.150713 -0.6522432 -0.006073082)
(7.548354 -0.7390833 -0.000493372)
(7.235134 -0.89766 -0.01125267)
(7.573423 -1.040407 -0.0006913145)
(7.178392 -0.6595166 -0.006073082)
(3.965309 0.3977346 -0.000521308)
(3.998452 0.4219124 -0.0003376807)
(3.984202 0.3926147 -0.0003457117)
(3.976513 0.4386597 -0.0005449315)
(3.964119 0.4001143 -0.000521308)
(3.997675 0.423627 -0.0003376807)
(3.983382 0.3942462 -0.0003457117)
(4.40671 -0.2573058 -0.005649643)
(4.249254 -0.2503509 0.003536619)
(4.1657 -0.2317041 -0.003264966)
(4.180123 -0.08961777 -0.003396818)
(4.361108 -0.1547952 -0.005649643)
(4.199288 -0.162682 0.003536619)
(4.077055 -0.08852703 -0.003264966)
(3.302535 0.06055529 -0.0003475086)
(3.461655 0.07280906 -0.0003558974)
(3.302602 0.06109477 -0.0003475086)
(3.572852 0.06765328 -0.0003613687)
(3.429239 0.03534984 -0.0003456663)
(3.57283 0.06955936 -0.0003613687)
(3.429333 0.0370248 -0.0003456663)
(6.844201 -0.919984 -0.01000077)
(6.546599 -0.7628585 -0.004543931)
(6.775463 -0.6061625 -0.003021635)
(6.546781 -0.4900863 0.001499748)
(6.901396 -0.8330127 -0.01000077)
(6.592866 -0.7622668 -0.004543931)
(6.846118 -0.5798376 -0.003021635)
(4.429352 -0.08272628 -0.009697655)
(4.411781 -0.1078518 -0.01031181)
(4.443698 -0.114458 -0.008285649)
(4.419329 0.01294131 -0.008049229)
(4.374417 0.0448159 -0.009697655)
(4.361351 0.02716042 -0.01031181)
(4.417753 -0.006963867 -0.008285649)
(3.242664 -0.09407386 0.003776869)
(2.829848 -0.09566817 0.01630602)
(3.124828 -0.1045952 0.01532139)
(2.513284 0.02756339 0.02914739)
(3.10139 0.01998648 0.003776869)
(2.568065 -0.03625807 0.01630602)
(2.938683 0.01546905 0.01532139)
(-0.4368739 -1.860349 0.001513809)
(0.07455066 -1.276289 0.004346945)
(-0.2765398 -1.982545 0.005151224)
(0.05188089 -1.092391 0.004744591)
(-0.3865432 -1.811814 0.001513809)
(0.06920954 -1.242411 0.004346945)
(-0.2363097 -1.898163 0.005151224)
(6.275968 -0.6692771 0.007799238)
(6.017799 -0.6065922 0.01591195)
(5.903519 -0.3626542 0.01113398)
(6.25408 -0.3850706 0.01002743)
(6.316248 -0.6455959 0.007799238)
(6.053205 -0.5376689 0.01591195)
(5.967943 -0.3047741 0.01113398)
(4.424337 -0.1608869 -0.0002228846)